 Gaussian 16, Revision C.02,
 Gaussian 16:  ES64L-G16RevC.02  7-Dec-2021

 ----------------------------------------------------------
 # td=(50-50,nstates=3) b3lyp/6-31+g(d,p) geom=connectivity
 ----------------------------------------------------------

 -------------------
 Title Card Required
 -------------------
 Symbolic Z-matrix:
 Charge =  0 Multiplicity = 1

                         Standard orientation:
 ---------------------------------------------------------------------
 Center     Atomic      Atomic             Coordinates (Angstroms)
 Number     Number       Type             X           Y           Z
 ---------------------------------------------------------------------
      1          6           0        2.929985    2.706007    0.244164
      2          6           0        2.010788    2.121825    1.264313
      3          7           0        1.596936    0.880837    1.332359
      4          8           0        0.747923    0.444686    2.206037
      5          6           0        2.078895   -0.152081    0.425734
      6          6           0        3.421704   -0.523088    0.442147
      7          6           0        3.862276   -1.582685   -0.353502
      8          6           0        2.961562   -2.272690   -1.166457
      9          6           0        1.615648   -1.905734   -1.181855
     10          6           0        1.172134   -0.849137   -0.386812
     11          7           0       -0.213366   -0.518711   -0.383272
     12          6           0       -0.846489    0.656478   -0.768662
     13          6           0       -0.178863    1.697273   -1.434346
     14          7           0        0.346760    2.579462   -1.992584
     15          6           0       -2.202124    0.522852   -0.428141
     16          6           0       -3.350180    1.342388   -0.571975
     17          6           0       -4.554612    0.854802   -0.112278
     18          6           0       -4.669796   -0.436181    0.489763
     19          6           0       -3.574739   -1.259769    0.637151
     20          6           0       -2.344097   -0.759217    0.168910
     21          7           0       -1.125222   -1.381181    0.187138
     22          8           0       -0.813790   -2.526499    0.608969
     23          1           0        2.445705    3.568883   -0.227155
     24          1           0        3.853038    3.067117    0.716769
     25          1           0        3.195704    2.004904   -0.547016
     26          1           0        1.580756    2.750335    2.037851
     27          1           0        4.108965    0.004913    1.094374
     28          1           0        4.908140   -1.872030   -0.328365
     29          1           0        3.300484   -3.099600   -1.781683
     30          1           0        0.898435   -2.439445   -1.794801
     31          1           0       -3.273618    2.324634   -1.026372
     32          1           0       -5.446451    1.466896   -0.206528
     33          1           0       -5.642527   -0.768788    0.837630
     34          1           0       -3.630008   -2.242422    1.090839
 ---------------------------------------------------------------------

 SCF Done:  E(RB3LYP) =  -986.248018171     A.U. after   18 cycles

 Excitation energies and oscillator strengths:

 Excited State   1:      Triplet-A      1.3599 eV  911.69 nm  f=0.0000  <S**2>=2.000
      76 -> 77         0.70417
      76 -> 78         0.10383
      76 <- 77         0.18055
 This state for optimization and/or second-order correction.
 Total Energy, E(TD-HF/TD-DFT) =  -986.198041409
 Copying the excited state density for this state as the 1-particle RhoCI density.

 Excited State   2:      Triplet-A      2.0608 eV  601.62 nm  f=0.0000  <S**2>=2.000
      75 -> 77        -0.15786
      75 -> 78         0.53995
      75 -> 79         0.12162
      75 -> 80         0.42847
      75 <- 78         0.12607
      75 <- 80         0.13377

 Excited State   3:      Singlet-A      2.9714 eV  417.26 nm  f=0.0563  <S**2>=0.000
      75 -> 77        -0.16342
      76 -> 77         0.62884
      76 -> 78        -0.23883
      76 -> 79         0.10745

 Excited State   4:      Triplet-A      3.1061 eV  399.16 nm  f=0.0000  <S**2>=2.000
      75 -> 77         0.68564
      75 -> 78         0.11381

 Excited State   5:      Singlet-A      3.1183 eV  397.61 nm  f=0.0073  <S**2>=0.000
      75 -> 77         0.68256
      76 -> 77         0.12223
      76 -> 78        -0.11817

 Excited State   6:      Singlet-A      3.3357 eV  371.68 nm  f=0.0439  <S**2>=0.000
      76 -> 77         0.24267
      76 -> 78         0.65123

 The electronic state is 1-A.
 Alpha  occ. eigenvalues --  -19.15907 -19.13148 -14.52375 -14.49000 -14.46516
 Alpha  occ. eigenvalues --  -14.35591 -10.27946 -10.27734 -10.27461 -10.25294
 Alpha  occ. eigenvalues --  -10.25141 -10.25115 -10.23579 -10.23469 -10.23464
 Alpha  occ. eigenvalues --  -10.23315 -10.22980 -10.22182 -10.22158 -10.21876
 Alpha  occ. eigenvalues --  -10.21707 -10.21111  -1.16864  -1.10952  -1.02925
 Alpha  occ. eigenvalues --   -0.92389  -0.92125  -0.89314  -0.87182  -0.84395
 Alpha  occ. eigenvalues --   -0.81865  -0.79905  -0.77669  -0.76829  -0.74100
 Alpha  occ. eigenvalues --   -0.70114  -0.67731  -0.67117  -0.64142  -0.63315
 Alpha  occ. eigenvalues --   -0.60954  -0.57795  -0.56442  -0.53967  -0.53584
 Alpha  occ. eigenvalues --   -0.52702  -0.50328  -0.50231  -0.49695  -0.49085
 Alpha  occ. eigenvalues --   -0.47393  -0.46660  -0.46250  -0.45847  -0.45645
 Alpha  occ. eigenvalues --   -0.42439  -0.42316  -0.41540  -0.41167  -0.40315
 Alpha  occ. eigenvalues --   -0.39623  -0.39581  -0.38881  -0.38308  -0.38009
 Alpha  occ. eigenvalues --   -0.37510  -0.35322  -0.34105  -0.30290  -0.29798
 Alpha  occ. eigenvalues --   -0.28798  -0.28530  -0.27684  -0.25320  -0.22933
 Alpha  occ. eigenvalues --   -0.20804
 Alpha virt. eigenvalues --   -0.08952  -0.06303  -0.05008  -0.02932  -0.02524
 Alpha virt. eigenvalues --   -0.01041  -0.00777  -0.00595   0.00346   0.00603
 Alpha virt. eigenvalues --    0.01432   0.02279   0.02486   0.02858   0.03503

 Mulliken charges:
               1
     1  C   -0.467608
     2  C    0.127169
     3  N   -0.273838
     4  O   -0.093449
     5  C    0.377039
     6  C   -0.390868
     7  C   -0.013232
     8  C   -0.186317
     9  C    0.275828
    10  C   -1.024410
    11  N    0.472645
    12  C    1.381214
    13  C   -0.248573
    14  N   -0.554209
    15  C    1.596847
    16  C   -0.437400
    17  C   -0.202033
    18  C   -0.246619
    19  C   -0.634494
    20  C   -1.150459
    21  N   -0.241396
    22  O    0.088121
    23  H    0.193325
    24  H    0.163898
    25  H    0.170539
    26  H    0.162868
    27  H    0.148948
    28  H    0.140867
    29  H    0.141906
    30  H    0.148829
    31  H    0.148361
    32  H    0.133174
    33  H    0.134474
    34  H    0.158856
 Sum of Mulliken charges =  -0.00000

 Dipole moment (field-independent basis, Debye):
    X=              1.7378    Y=              0.3499    Z=             -1.7439  Tot=              2.4867
 Quadrupole moment (field-independent basis, Debye-Ang):
   XX=            -91.7190   YY=           -128.9275   ZZ=           -140.3354
   XY=             -3.5259   XZ=              0.2121   YZ=             13.1874

 Normal termination of Gaussian 16 at Tue Jul 29 15:30:06 2025.
