 Gaussian 16, Revision C.02,
 Gaussian 16:  ES64L-G16RevC.02  7-Dec-2021

 ----------------------------------------------------------
 # td=(50-50,nstates=3) b3lyp/6-31+g(d,p) geom=connectivity
 ----------------------------------------------------------

 -------------------
 Title Card Required
 -------------------
 Symbolic Z-matrix:
 Charge =  0 Multiplicity = 1

                         Standard orientation:
 ---------------------------------------------------------------------
 Center     Atomic      Atomic             Coordinates (Angstroms)
 Number     Number       Type             X           Y           Z
 ---------------------------------------------------------------------
      1          6           0        0.305598    2.930527   -0.452058
      2          6           0       -0.518043    2.203623    0.322410
      3          6           0       -1.059731    2.794800    1.521766
      4          7           0       -1.497461    3.243197    2.503267
      5          6           0       -0.963868    0.800231    0.019365
      6          6           0       -0.165073   -0.284724    0.208947
      7          6           0        1.254501   -0.109015    0.752005
      8          6           0        1.552435   -0.839526    2.079738
      9          6           0        2.342468   -0.360185   -0.314837
     10          8           0        3.543004    0.228693    0.168917
     11          6           0        4.768994    0.023161   -0.574597
     12          6           0        4.628184    0.522888   -2.021814
     13          6           0        5.791898    0.875634    0.183932
     14          6           0        5.185756   -1.457190   -0.541674
     15          6           0       -0.759615   -1.645103   -0.204230
     16          6           0        0.061786   -2.898240    0.148189
     17          6           0       -2.260596   -1.763870    0.247754
     18          6           0       -2.843639   -3.116389   -0.209326
     19          6           0       -2.411503   -1.672241    1.789008
     20          6           0       -3.012093   -0.586454   -0.386481
     21          6           0       -4.333436   -0.680739   -0.837137
     22          6           0       -5.005085    0.420572   -1.376246
     23          6           0       -4.354731    1.649523   -1.469010
     24          6           0       -3.040818    1.765360   -1.018187
     25          6           0       -2.354804    0.664667   -0.473468
     26          1           0        0.715647    2.509155   -1.363998
     27          1           0        0.587246    3.944789   -0.187799
     28          1           0        1.360770    0.953336    0.979311
     29          1           0        2.486944   -0.450575    2.492241
     30          1           0        0.757846   -0.655288    2.809594
     31          1           0        1.665855   -1.919048    1.963832
     32          1           0        2.485014   -1.432111   -0.499724
     33          1           0        2.034842    0.105479   -1.262569
     34          1           0        5.597307    0.482625   -2.529865
     35          1           0        3.929047   -0.087696   -2.602238
     36          1           0        4.278695    1.560578   -2.035703
     37          1           0        6.781107    0.797850   -0.278568
     38          1           0        5.865357    0.542883    1.223726
     39          1           0        5.486153    1.926277    0.182683
     40          1           0        5.233264   -1.815201    0.491610
     41          1           0        4.491914   -2.094838   -1.098649
     42          1           0        6.175357   -1.580607   -0.994083
     43          1           0       -0.799172   -1.613667   -1.307047
     44          1           0        1.115247   -2.776593   -0.103820
     45          1           0        0.000683   -3.160675    1.207579
     46          1           0       -0.298239   -3.753756   -0.427604
     47          1           0       -2.757879   -3.251512   -1.293739
     48          1           0       -2.333872   -3.947347    0.283438
     49          1           0       -3.899772   -3.201327    0.059612
     50          1           0       -1.869564   -2.481819    2.289674
     51          1           0       -2.043901   -0.720585    2.180637
     52          1           0       -3.467766   -1.759545    2.062631
     53          1           0       -4.861086   -1.625404   -0.776454
     54          1           0       -6.029168    0.311499   -1.721561
     55          1           0       -4.862541    2.513810   -1.886665
     56          1           0       -2.538655    2.723513   -1.094990
 ---------------------------------------------------------------------

 SCF Done:  E(RB3LYP) =  -1025.11968434     A.U. after   15 cycles

 Excitation energies and oscillator strengths:

 Excited State   1:      Triplet-A      2.7871 eV  444.85 nm  f=0.0000  <S**2>=2.000
      91 -> 95         0.11864
      92 -> 93        -0.13741
      92 -> 94         0.65663
 This state for optimization and/or second-order correction.
 Total Energy, E(TD-HF/TD-DFT) =  -1025.01726092
 Copying the excited state density for this state as the 1-particle RhoCI density.

 Excited State   2:      Triplet-A      3.2122 eV  385.98 nm  f=0.0000  <S**2>=2.000
      87 -> 93        -0.12584
      88 -> 93        -0.12326
      89 -> 93         0.60508
      92 -> 93        -0.26751
      92 -> 94        -0.11369
      89 <- 93         0.10923

 Excited State   3:      Triplet-A      3.5900 eV  345.36 nm  f=0.0000  <S**2>=2.000
      88 -> 93        -0.10841
      89 -> 93         0.25522
      91 -> 95         0.10606
      92 -> 93         0.60607

 Excited State   4:      Singlet-A      3.6872 eV  336.26 nm  f=0.0235  <S**2>=0.000
      92 -> 93         0.70069

 Excited State   5:      Singlet-A      4.4158 eV  280.77 nm  f=0.2547  <S**2>=0.000
      91 -> 94         0.13019
      92 -> 94         0.68181

 Excited State   6:      Singlet-A      4.5866 eV  270.32 nm  f=0.0115  <S**2>=0.000
      91 -> 93         0.70139

 The electronic state is 1-A.
 Alpha  occ. eigenvalues --  -19.15552 -14.34426 -10.25504 -10.25139 -10.23905
 Alpha  occ. eigenvalues --  -10.23518 -10.22358 -10.21565 -10.21530 -10.21397
 Alpha  occ. eigenvalues --  -10.21000 -10.20807 -10.20470 -10.20222 -10.19799
 Alpha  occ. eigenvalues --  -10.19701 -10.19609 -10.19570 -10.18662 -10.18661
 Alpha  occ. eigenvalues --  -10.18524 -10.18445 -10.18009 -10.17929 -10.17710
 Alpha  occ. eigenvalues --   -1.03394  -0.91274  -0.88668  -0.84687  -0.83423
 Alpha  occ. eigenvalues --   -0.81669  -0.79299  -0.77278  -0.75714  -0.73846
 Alpha  occ. eigenvalues --   -0.71827  -0.70319  -0.70053  -0.69296  -0.68074
 Alpha  occ. eigenvalues --   -0.67149  -0.64332  -0.62817  -0.60660  -0.58758
 Alpha  occ. eigenvalues --   -0.57028  -0.56269  -0.53134  -0.51738  -0.50529
 Alpha  occ. eigenvalues --   -0.49037  -0.48515  -0.47782  -0.47400  -0.46619
 Alpha  occ. eigenvalues --   -0.46047  -0.45285  -0.44721  -0.43951  -0.43673
 Alpha  occ. eigenvalues --   -0.42961  -0.42760  -0.41732  -0.41472  -0.40897
 Alpha  occ. eigenvalues --   -0.40004  -0.39667  -0.39127  -0.38852  -0.38336
 Alpha  occ. eigenvalues --   -0.38051  -0.37690  -0.37543  -0.36991  -0.36871
 Alpha  occ. eigenvalues --   -0.36720  -0.36490  -0.36307  -0.35814  -0.35040
 Alpha  occ. eigenvalues --   -0.34665  -0.34162  -0.33535  -0.33420  -0.32019
 Alpha  occ. eigenvalues --   -0.31026  -0.30740  -0.29253  -0.28053  -0.26327
 Alpha  occ. eigenvalues --   -0.25395  -0.22546
 Alpha virt. eigenvalues --   -0.06199  -0.04723  -0.01553  -0.01027   0.00054
 Alpha virt. eigenvalues --    0.00227   0.00982   0.01210   0.01817   0.01876
 Alpha virt. eigenvalues --    0.02451   0.02602   0.02932   0.03242   0.03788

 Mulliken charges:
               1
     1  C   -0.251751
     2  C    0.595952
     3  C   -0.321135
     4  N   -0.437233
     5  C   -0.015736
     6  C   -0.073327
     7  C    0.011500
     8  C   -0.623002
     9  C   -0.303533
    10  O   -0.191100
    11  C    0.096570
    12  C   -0.436091
    13  C   -0.387080
    14  C   -0.437576
    15  C   -0.123143
    16  C   -0.531562
    17  C    0.121722
    18  C   -0.353707
    19  C   -0.509595
    20  C    0.205310
    21  C   -0.014799
    22  C   -0.447976
    23  C   -0.361827
    24  C   -0.054325
    25  C    0.392017
    26  H    0.141691
    27  H    0.156882
    28  H    0.146118
    29  H    0.164656
    30  H    0.150200
    31  H    0.139807
    32  H    0.101889
    33  H    0.116863
    34  H    0.150352
    35  H    0.147336
    36  H    0.153311
    37  H    0.142204
    38  H    0.156813
    39  H    0.155425
    40  H    0.156314
    41  H    0.142290
    42  H    0.149969
    43  H    0.155368
    44  H    0.132368
    45  H    0.151772
    46  H    0.149118
    47  H    0.155654
    48  H    0.151374
    49  H    0.140455
    50  H    0.140606
    51  H    0.169014
    52  H    0.148635
    53  H    0.109828
    54  H    0.124800
    55  H    0.126211
    56  H    0.124102
 Sum of Mulliken charges =  -0.00000

 Dipole moment (field-independent basis, Debye):
    X=              2.2190    Y=             -3.0260    Z=             -4.0449  Tot=              5.5174
 Quadrupole moment (field-independent basis, Debye-Ang):
   XX=           -146.5352   YY=           -156.2504   ZZ=           -165.8801
   XY=              6.8483   XZ=              2.6836   YZ=            -13.5172

 Normal termination of Gaussian 16 at Tue Jul 29 13:30:18 2025.
