 Gaussian 16, Revision C.02,
 Gaussian 16:  ES64L-G16RevC.02  7-Dec-2021

 ----------------------------------------------------------
 # td=(50-50,nstates=3) b3lyp/6-31+g(d,p) geom=connectivity
 ----------------------------------------------------------

 -------------------
 Title Card Required
 -------------------
 Symbolic Z-matrix:
 Charge =  0 Multiplicity = 1

                         Standard orientation:
 ---------------------------------------------------------------------
 Center     Atomic      Atomic             Coordinates (Angstroms)
 Number     Number       Type             X           Y           Z
 ---------------------------------------------------------------------
      1          6           0        5.562559    0.002677   -0.064261
      2          6           0        4.117078    0.005202    0.334966
      3          6           0        3.087854   -0.005579   -0.528246
      4          6           0        1.651255   -0.003707   -0.208202
      5          6           0        0.720622   -0.005270   -1.265565
      6          6           0       -0.651635   -0.003272   -1.030340
      7          6           0       -1.135059    0.000128    0.281234
      8          6           0       -2.642490    0.002257    0.567137
      9          6           0       -3.306733    1.214005    0.042289
     10          7           0       -3.807554    2.181695   -0.356204
     11          6           0       -3.309184   -1.210484    0.047718
     12          7           0       -3.811918   -2.178960   -0.346440
     13          6           0       -0.227257    0.001243    1.345691
     14          6           0        1.144335   -0.000811    1.104850
     15          1           0        6.080606    0.887346    0.328045
     16          1           0        6.082874   -0.871840    0.347338
     17          1           0        5.681882   -0.009123   -1.151884
     18          1           0        3.923590    0.017230    1.407356
     19          1           0        3.316497   -0.016285   -1.594114
     20          1           0        1.082660   -0.007873   -2.289975
     21          1           0       -1.341937   -0.004392   -1.869351
     22          1           0       -2.790972    0.004850    1.654908
     23          1           0       -0.589320    0.003365    2.370698
     24          1           0        1.822356   -0.000753    1.951864
 ---------------------------------------------------------------------

 SCF Done:  E(RB3LYP) =  -572.780502738     A.U. after   15 cycles

 Excitation energies and oscillator strengths:

 Excited State   1:      Triplet-A      2.7719 eV  447.29 nm  f=0.0000  <S**2>=2.000
      46 -> 56        -0.11044
      47 -> 50         0.14380
      48 -> 49         0.67240
      48 -> 56        -0.11667
      48 <- 49         0.10124
 This state for optimization and/or second-order correction.
 Total Energy, E(TD-HF/TD-DFT) =  -572.678636907
 Copying the excited state density for this state as the 1-particle RhoCI density.

 Excited State   2:      Triplet-A      4.0930 eV  302.92 nm  f=0.0000  <S**2>=2.000
      46 -> 49        -0.24023
      47 -> 49        -0.38526
      47 -> 50         0.42620
      48 -> 50        -0.21466
      48 -> 56         0.18933

 Excited State   3:      Triplet-A      4.1337 eV  299.94 nm  f=0.0000  <S**2>=2.000
      46 -> 49        -0.13677
      46 -> 50        -0.12517
      47 -> 49         0.11582
      47 -> 50         0.26206
      48 -> 50         0.59867

 Excited State   4:      Singlet-A      4.5204 eV  274.27 nm  f=0.3537  <S**2>=0.000
      47 -> 49         0.17055
      48 -> 49         0.59781
      48 -> 50        -0.31939

 Excited State   5:      Singlet-A      4.7326 eV  261.98 nm  f=0.2434  <S**2>=0.000
      47 -> 49        -0.36417
      48 -> 49         0.35753
      48 -> 50         0.48344

 Excited State   6:      Singlet-A      5.3031 eV  233.80 nm  f=0.0029  <S**2>=0.000
      48 -> 51         0.69886

 The electronic state is 1-A.
 Alpha  occ. eigenvalues --  -14.36939 -14.36939 -10.31080 -10.26276 -10.26276
 Alpha  occ. eigenvalues --  -10.24433 -10.23079 -10.22795 -10.22435 -10.22075
 Alpha  occ. eigenvalues --  -10.21959 -10.21698 -10.21126 -10.20283  -0.94596
 Alpha  occ. eigenvalues --   -0.93055  -0.89772  -0.85378  -0.81527  -0.77875
 Alpha  occ. eigenvalues --   -0.76669  -0.70142  -0.64863  -0.62761  -0.59835
 Alpha  occ. eigenvalues --   -0.57736  -0.55587  -0.53330  -0.50458  -0.47743
 Alpha  occ. eigenvalues --   -0.47024  -0.45095  -0.43113  -0.42889  -0.42327
 Alpha  occ. eigenvalues --   -0.40471  -0.39474  -0.38893  -0.38701  -0.37804
 Alpha  occ. eigenvalues --   -0.37012  -0.36480  -0.36087  -0.35577  -0.34896
 Alpha  occ. eigenvalues --   -0.31987  -0.28364  -0.24494
 Alpha virt. eigenvalues --   -0.06789  -0.04164  -0.02635  -0.02047  -0.00394
 Alpha virt. eigenvalues --    0.00012   0.00453   0.00809   0.01287   0.01621
 Alpha virt. eigenvalues --    0.02458   0.03157   0.03833   0.04139   0.04328

 Mulliken charges:
               1
     1  C   -0.840764
     2  C    0.120867
     3  C   -0.180182
     4  C    0.278679
     5  C    0.064027
     6  C   -0.298230
     7  C   -0.247239
     8  C    1.006855
     9  C    0.065100
    10  N   -0.425462
    11  C    0.066240
    12  N   -0.425415
    13  C    0.205941
    14  C   -0.824943
    15  H    0.162211
    16  H    0.162211
    17  H    0.153893
    18  H    0.117686
    19  H    0.115502
    20  H    0.130654
    21  H    0.142592
    22  H    0.210266
    23  H    0.119879
    24  H    0.119634
 Sum of Mulliken charges =  -0.00000

 Dipole moment (field-independent basis, Debye):
    X=              5.5590    Y=              0.0029    Z=              2.2369  Tot=              5.9922
 Quadrupole moment (field-independent basis, Debye-Ang):
   XX=            -91.7302   YY=           -100.6661   ZZ=            -73.6185
   XY=             -0.0080   XZ=             -7.1233   YZ=              0.0848

 Normal termination of Gaussian 16 at Tue Jul 29 15:21:38 2025.
