 Gaussian 16, Revision C.02,
 Gaussian 16:  ES64L-G16RevC.02  7-Dec-2021

 ----------------------------------------------------------
 # td=(50-50,nstates=3) b3lyp/6-31+g(d,p) geom=connectivity
 ----------------------------------------------------------

 -------------------
 Title Card Required
 -------------------
 Symbolic Z-matrix:
 Charge =  0 Multiplicity = 1

                         Standard orientation:
 ---------------------------------------------------------------------
 Center     Atomic      Atomic             Coordinates (Angstroms)
 Number     Number       Type             X           Y           Z
 ---------------------------------------------------------------------
      1          6           0       -4.073858   -1.870329    0.099618
      2          6           0       -2.942581   -0.969082   -0.104551
      3          6           0       -2.011802   -0.215250   -0.278911
      4          6           0       -0.859436    0.679563   -0.480094
      5          6           0       -1.167404    2.047032    0.000668
      6          7           0       -1.383851    3.121154    0.385069
      7          6           0        0.401870    0.155956    0.196820
      8          7           0        1.408360   -0.118061   -0.551126
      9          7           0        2.541155   -0.663207   -0.051883
     10          6           0        3.700395   -0.437199   -0.908277
     11          6           0        2.775538   -0.662840    1.384657
     12          1           0       -4.546584   -2.129059   -0.853969
     13          1           0       -3.753560   -2.801074    0.580347
     14          1           0       -4.833274   -1.405100    0.737317
     15          1           0       -0.632571    0.755399   -1.551702
     16          1           0        0.357638    0.015388    1.276766
     17          1           0        3.382445   -0.533905   -1.947063
     18          1           0        4.138244    0.563336   -0.764190
     19          1           0        4.462564   -1.191407   -0.693703
     20          1           0        2.019419   -1.266480    1.896936
     21          1           0        3.752270   -1.109401    1.578028
     22          1           0        2.757429    0.355992    1.807227
 ---------------------------------------------------------------------

 SCF Done:  E(RB3LYP) =  -475.628996556     A.U. after   15 cycles

 Excitation energies and oscillator strengths:

 Excited State   1:      Triplet-A      3.3544 eV  369.61 nm  f=0.0000  <S**2>=2.000
      33 -> 41         0.10220
      40 -> 41         0.66763
      40 -> 42        -0.13730
 This state for optimization and/or second-order correction.
 Total Energy, E(TD-HF/TD-DFT) =  -475.505723190
 Copying the excited state density for this state as the 1-particle RhoCI density.

 Excited State   2:      Triplet-A      4.8997 eV  253.05 nm  f=0.0000  <S**2>=2.000
      37 -> 41        -0.28721
      38 -> 41        -0.35108
      38 -> 44        -0.28762
      38 -> 58        -0.10764
      39 -> 45        -0.18754
      39 -> 50        -0.15574
      39 -> 55        -0.10206
      40 -> 44         0.14063

 Excited State   3:      Triplet-A      4.9873 eV  248.60 nm  f=0.0000  <S**2>=2.000
      37 -> 41        -0.52371
      37 -> 42         0.10033
      38 -> 41        -0.13710
      38 -> 44         0.19215
      38 -> 58         0.10923
      39 -> 45         0.16559
      39 -> 50         0.13257
      40 -> 44        -0.10231

 Excited State   4:      Singlet-A      5.1842 eV  239.16 nm  f=0.2258  <S**2>=0.000
      40 -> 41         0.58600
      40 -> 42         0.36642
      40 -> 43        -0.10449

 Excited State   5:      Singlet-A      5.4936 eV  225.69 nm  f=0.2001  <S**2>=0.000
      40 -> 41        -0.36390
      40 -> 42         0.58102

 Excited State   6:      Singlet-A      5.7349 eV  216.19 nm  f=0.0100  <S**2>=0.000
      40 -> 43         0.62501
      40 -> 45         0.25380
      40 -> 46         0.13767

 The electronic state is 1-A.
 Alpha  occ. eigenvalues --  -14.39760 -14.38662 -14.34336 -10.27001 -10.23901
 Alpha  occ. eigenvalues --  -10.23698 -10.23356 -10.22617 -10.21901 -10.20683
 Alpha  occ. eigenvalues --  -10.20095  -1.02978  -0.91305  -0.87339  -0.81715
 Alpha  occ. eigenvalues --   -0.78132  -0.74319  -0.70712  -0.67722  -0.58023
 Alpha  occ. eigenvalues --   -0.55103  -0.54651  -0.51012  -0.48689  -0.48453
 Alpha  occ. eigenvalues --   -0.46489  -0.44411  -0.44044  -0.43647  -0.42207
 Alpha  occ. eigenvalues --   -0.41765  -0.39776  -0.37415  -0.36351  -0.33875
 Alpha  occ. eigenvalues --   -0.33564  -0.29515  -0.27583  -0.27494  -0.23054
 Alpha virt. eigenvalues --   -0.02327  -0.00387   0.00376   0.01099   0.01400
 Alpha virt. eigenvalues --    0.01642   0.02396   0.03198   0.03836   0.04041
 Alpha virt. eigenvalues --    0.04553   0.04660   0.05308   0.05562   0.06227

 Mulliken charges:
               1
     1  C   -0.895871
     2  C    0.339233
     3  C    0.030874
     4  C    0.233067
     5  C    0.118976
     6  N   -0.492551
     7  C   -0.339743
     8  N   -0.156906
     9  N    0.072690
    10  C   -0.348256
    11  C   -0.361596
    12  H    0.179386
    13  H    0.177643
    14  H    0.181917
    15  H    0.215477
    16  H    0.129991
    17  H    0.168005
    18  H    0.142927
    19  H    0.145188
    20  H    0.150799
    21  H    0.151738
    22  H    0.157013
 Sum of Mulliken charges =  -0.00000

 Dipole moment (field-independent basis, Debye):
    X=              1.9978    Y=             -4.4374    Z=              0.5135  Tot=              4.8934
 Quadrupole moment (field-independent basis, Debye-Ang):
   XX=            -50.8431   YY=            -80.0233   ZZ=            -64.6275
   XY=              8.9714   XZ=              2.7082   YZ=             -4.4070

 Normal termination of Gaussian 16 at Tue Jul 29 15:17:36 2025.
