 Gaussian 16, Revision C.02,
 Gaussian 16:  ES64L-G16RevC.02  7-Dec-2021

 ----------------------------------------------------------
 # td=(50-50,nstates=3) b3lyp/6-31+g(d,p) geom=connectivity
 ----------------------------------------------------------

 -------------------
 Title Card Required
 -------------------
 Symbolic Z-matrix:
 Charge =  0 Multiplicity = 1

                         Standard orientation:
 ---------------------------------------------------------------------
 Center     Atomic      Atomic             Coordinates (Angstroms)
 Number     Number       Type             X           Y           Z
 ---------------------------------------------------------------------
      1          6           0        4.806394    1.769548    0.000834
      2          8           0        4.128520    0.511919    0.000732
      3          6           0        2.782869    0.480051    0.000446
      4          6           0        1.977628    1.578936    0.000474
      5          6           0        0.531717    1.501442    0.000216
      6          6           0       -0.230494    2.657241   -0.000294
      7          6           0       -1.738922    2.787917   -0.000374
      8          6           0        0.463337    3.907800   -0.000782
      9          7           0        0.994299    4.946797   -0.001214
     10          6           0       -0.035502    0.146693    0.000345
     11          8           0       -1.382688    0.082179    0.000536
     12          6           0       -2.033008   -1.214907    0.000203
     13          6           0       -3.520243   -0.991129    0.000129
     14          6           0       -4.221051   -0.880553   -1.208340
     15          6           0       -5.599166   -0.655084   -1.209967
     16          6           0       -6.289662   -0.540796    0.000038
     17          6           0       -5.599206   -0.654864    1.210092
     18          6           0       -4.221103   -0.880361    1.208556
     19          6           0        0.776129   -0.954597    0.000213
     20          6           0        2.209428   -0.865100    0.000130
     21          6           0        2.983323   -2.024521   -0.000225
     22          6           0        4.409438   -2.100244   -0.000352
     23          7           0        5.560247   -2.284415   -0.000487
     24          6           0        2.335389   -3.299531   -0.000564
     25          7           0        1.784216   -4.326772   -0.000800
     26          1           0        4.555857    2.346634   -0.896365
     27          1           0        4.555831    2.346519    0.898088
     28          1           0        5.867685    1.523826    0.000808
     29          1           0        2.420611    2.565715    0.000733
     30          1           0       -2.178558    2.306421   -0.878010
     31          1           0       -2.178726    2.305840    0.876832
     32          1           0       -2.020100    3.842187   -0.000103
     33          1           0       -1.713315   -1.766093   -0.891437
     34          1           0       -1.713447   -1.766467    0.891667
     35          1           0       -3.686619   -0.974873   -2.150373
     36          1           0       -6.133154   -0.574740   -2.152119
     37          1           0       -7.362205   -0.370284   -0.000004
     38          1           0       -6.133224   -0.574349    2.152212
     39          1           0       -3.686698   -0.974548    2.150618
     40          1           0        0.344317   -1.945485    0.000154
 ---------------------------------------------------------------------

 SCF Done:  E(RB3LYP) =  -1085.82022698     A.U. after   17 cycles

 Excitation energies and oscillator strengths:

 Excited State   1:      Triplet-A      0.9468 eV 1309.55 nm  f=0.0000  <S**2>=2.000
      86 -> 87         0.74151
      86 <- 87         0.25235
 This state for optimization and/or second-order correction.
 Total Energy, E(TD-HF/TD-DFT) =  -1085.78543380
 Copying the excited state density for this state as the 1-particle RhoCI density.

 Excited State   2:      Triplet-A      2.0386 eV  608.17 nm  f=0.0000  <S**2>=2.000
      85 -> 87         0.69499

 Excited State   3:      Singlet-A      2.6935 eV  460.30 nm  f=0.0193  <S**2>=0.000
      85 -> 87         0.68322
      86 -> 87        -0.15922

 Excited State   4:      Singlet-A      2.9983 eV  413.52 nm  f=0.8767  <S**2>=0.000
      85 -> 87         0.15937
      86 -> 87         0.69595
      86 <- 87        -0.14793

 Excited State   5:      Triplet-A      3.4017 eV  364.47 nm  f=0.0000  <S**2>=2.000
      84 -> 87         0.70604

 Excited State   6:      Singlet-A      3.4071 eV  363.89 nm  f=0.0000  <S**2>=0.000
      84 -> 87         0.70625

 The electronic state is 1-A.
 Alpha  occ. eigenvalues --  -19.23292 -19.22357 -14.36605 -14.36055 -14.34922
 Alpha  occ. eigenvalues --  -10.30933 -10.30081 -10.28480 -10.28121 -10.27623
 Alpha  occ. eigenvalues --  -10.27464 -10.26699 -10.26546 -10.25582 -10.25446
 Alpha  occ. eigenvalues --  -10.24678 -10.23245 -10.23163 -10.23151 -10.22373
 Alpha  occ. eigenvalues --  -10.22371 -10.22216 -10.22141 -10.22122 -10.21921
 Alpha  occ. eigenvalues --   -1.11769  -1.11162  -0.93626  -0.93407  -0.91448
 Alpha  occ. eigenvalues --   -0.90675  -0.88803  -0.86712  -0.82225  -0.81521
 Alpha  occ. eigenvalues --   -0.78965  -0.77581  -0.76603  -0.74357  -0.71871
 Alpha  occ. eigenvalues --   -0.69328  -0.66827  -0.63732  -0.63338  -0.61922
 Alpha  occ. eigenvalues --   -0.59672  -0.58309  -0.56889  -0.54694  -0.54309
 Alpha  occ. eigenvalues --   -0.52408  -0.52107  -0.50303  -0.50062  -0.48770
 Alpha  occ. eigenvalues --   -0.48281  -0.47359  -0.46536  -0.45469  -0.45305
 Alpha  occ. eigenvalues --   -0.44918  -0.43761  -0.43628  -0.42847  -0.41551
 Alpha  occ. eigenvalues --   -0.40798  -0.39504  -0.39105  -0.39028  -0.38753
 Alpha  occ. eigenvalues --   -0.38429  -0.38227  -0.37984  -0.37365  -0.37077
 Alpha  occ. eigenvalues --   -0.36640  -0.35588  -0.35320  -0.35285  -0.33858
 Alpha  occ. eigenvalues --   -0.33194  -0.32388  -0.28257  -0.28254  -0.26331
 Alpha  occ. eigenvalues --   -0.23901
 Alpha virt. eigenvalues --   -0.14043  -0.04866  -0.04675  -0.04033  -0.01999
 Alpha virt. eigenvalues --   -0.01820  -0.01391  -0.00618  -0.00255   0.00400
 Alpha virt. eigenvalues --    0.00433   0.00822   0.01361   0.01947   0.02630

 Mulliken charges:
               1
     1  C   -0.126731
     2  O   -0.334487
     3  C   -0.700957
     4  C   -0.713029
     5  C    0.631299
     6  C    1.510532
     7  C   -0.519688
     8  C   -0.392299
     9  N   -0.494299
    10  C   -0.178814
    11  O   -0.314444
    12  C    0.313273
    13  C   -0.067848
    14  C   -0.120017
    15  C   -0.200337
    16  C   -0.059270
    17  C   -0.200307
    18  C   -0.119694
    19  C   -0.380339
    20  C    0.374910
    21  C    1.391525
    22  C   -0.034025
    23  N   -0.524865
    24  C   -0.512568
    25  N   -0.486723
    26  H    0.155785
    27  H    0.155782
    28  H    0.169568
    29  H    0.148056
    30  H    0.187394
    31  H    0.187420
    32  H    0.164004
    33  H    0.146014
    34  H    0.146028
    35  H    0.123537
    36  H    0.133990
    37  H    0.132727
    38  H    0.133989
    39  H    0.123541
    40  H    0.151368
 Sum of Mulliken charges =  -0.00000

 Dipole moment (field-independent basis, Debye):
    X=             -6.9852    Y=              3.0468    Z=              0.0027  Tot=              7.6208
 Quadrupole moment (field-independent basis, Debye-Ang):
   XX=           -146.0693   YY=           -190.1633   ZZ=           -140.2092
   XY=             20.0368   XZ=              0.0100   YZ=              0.0039

 Normal termination of Gaussian 16 at Tue Jul 29 15:24:14 2025.
