 Gaussian 16, Revision C.02,
 Gaussian 16:  ES64L-G16RevC.02  7-Dec-2021

 ----------------------------------------------------------
 # td=(50-50,nstates=3) b3lyp/6-31+g(d,p) geom=connectivity
 ----------------------------------------------------------

 -------------------
 Title Card Required
 -------------------
 Symbolic Z-matrix:
 Charge =  0 Multiplicity = 1

                         Standard orientation:
 ---------------------------------------------------------------------
 Center     Atomic      Atomic             Coordinates (Angstroms)
 Number     Number       Type             X           Y           Z
 ---------------------------------------------------------------------
      1          6           0       -0.452280    3.365741   -0.417200
      2          6           0        0.713726    2.406089   -0.282793
      3          6           0        1.960698    2.937330    0.134183
      4          6           0        3.054128    2.137399    0.362410
      5          6           0        2.983012    0.745911    0.106156
      6          7           0        4.071973   -0.014517    0.403778
      7          6           0        3.971075   -1.305120    0.136110
      8          7           0        4.999296   -2.129052    0.509886
      9          7           0        2.972525   -1.897290   -0.569463
     10          6           0        1.923923   -1.162572   -0.890567
     11          7           0        1.005248   -1.789968   -1.714756
     12          6           0        1.772436    0.206959   -0.441025
     13          6           0        0.600162    1.032786   -0.531966
     14          6           0       -0.791973    0.453511   -0.731946
     15          6           0       -1.588751    0.280470    0.611174
     16          6           0       -0.900145   -0.648386    1.522165
     17          7           0       -0.366847   -1.384019    2.245676
     18          6           0       -3.025514   -0.161174    0.339689
     19          6           0       -4.047858    0.795666    0.308291
     20          6           0       -5.360462    0.425096    0.004342
     21          6           0       -5.664362   -0.910238   -0.270634
     22          6           0       -4.649626   -1.871090   -0.237243
     23          6           0       -3.338159   -1.499598    0.066118
     24          1           0       -1.006614    3.223685   -1.351213
     25          1           0       -1.175151    3.275997    0.403680
     26          1           0       -0.091982    4.397974   -0.406533
     27          1           0        2.035191    4.006991    0.314168
     28          1           0        3.988582    2.537132    0.741563
     29          1           0        4.820784   -3.121188    0.501258
     30          1           0        5.643185   -1.768926    1.197303
     31          1           0        0.574359   -1.221794   -2.430244
     32          1           0        1.358214   -2.674090   -2.062229
     33          1           0       -1.398134    1.110274   -1.362112
     34          1           0       -0.781877   -0.525458   -1.201748
     35          1           0       -1.616552    1.246709    1.125788
     36          1           0       -3.820093    1.835906    0.528429
     37          1           0       -6.143293    1.177872   -0.010238
     38          1           0       -6.684599   -1.201420   -0.502381
     39          1           0       -4.879144   -2.913048   -0.440414
     40          1           0       -2.558420   -2.255379    0.105491
 ---------------------------------------------------------------------

 SCF Done:  E(RB3LYP) =  -969.996537911     A.U. after   16 cycles

 Excitation energies and oscillator strengths:

 Excited State   1:      Triplet-A      2.6553 eV  466.93 nm  f=0.0000  <S**2>=2.000
      78 -> 81         0.13469
      79 -> 81         0.10855
      80 -> 81         0.65897
      80 -> 84        -0.11326
 This state for optimization and/or second-order correction.
 Total Energy, E(TD-HF/TD-DFT) =  -969.898957726
 Copying the excited state density for this state as the 1-particle RhoCI density.

 Excited State   2:      Triplet-A      3.4631 eV  358.02 nm  f=0.0000  <S**2>=2.000
      75 -> 81         0.13018
      76 -> 81        -0.10271
      78 -> 81        -0.29706
      79 -> 81        -0.27844
      80 -> 81         0.21939
      80 -> 84         0.44479
      80 -> 86        -0.10609

 Excited State   3:      Singlet-A      3.6255 eV  341.98 nm  f=0.0793  <S**2>=0.000
      80 -> 81         0.68715

 Excited State   4:      Triplet-A      3.7153 eV  333.71 nm  f=0.0000  <S**2>=2.000
      75 -> 82         0.28548
      75 -> 83         0.21306
      76 -> 83         0.40182
      77 -> 81         0.12098
      77 -> 82         0.34937
      78 -> 82         0.16614

 Excited State   5:      Singlet-A      4.2072 eV  294.70 nm  f=0.0013  <S**2>=0.000
      78 -> 81        -0.27726
      79 -> 81         0.63486

 Excited State   6:      Singlet-A      4.4207 eV  280.46 nm  f=0.0070  <S**2>=0.000
      78 -> 81         0.16758
      80 -> 82         0.64669
      80 -> 84        -0.18329

 The electronic state is 1-A.
 Alpha  occ. eigenvalues --  -14.36656 -14.35065 -14.33994 -14.32998 -14.31511
 Alpha  occ. eigenvalues --  -10.28662 -10.28551 -10.25426 -10.23361 -10.23171
 Alpha  occ. eigenvalues --  -10.22476 -10.21957 -10.21780 -10.21229 -10.21146
 Alpha  occ. eigenvalues --  -10.21095 -10.20998 -10.20997 -10.20917 -10.20885
 Alpha  occ. eigenvalues --  -10.20181 -10.20060 -10.19185  -1.00480  -0.94890
 Alpha  occ. eigenvalues --   -0.91145  -0.89985  -0.87978  -0.87085  -0.85668
 Alpha  occ. eigenvalues --   -0.82483  -0.77745  -0.77594  -0.76402  -0.74106
 Alpha  occ. eigenvalues --   -0.70734  -0.67892  -0.65527  -0.63831  -0.62711
 Alpha  occ. eigenvalues --   -0.61235  -0.59754  -0.56336  -0.55026  -0.53856
 Alpha  occ. eigenvalues --   -0.53119  -0.52445  -0.49880  -0.49538  -0.48336
 Alpha  occ. eigenvalues --   -0.46596  -0.46480  -0.45736  -0.45330  -0.44358
 Alpha  occ. eigenvalues --   -0.43979  -0.43584  -0.43492  -0.42800  -0.41647
 Alpha  occ. eigenvalues --   -0.40135  -0.39923  -0.38049  -0.37480  -0.37347
 Alpha  occ. eigenvalues --   -0.36719  -0.36359  -0.36153  -0.35698  -0.34987
 Alpha  occ. eigenvalues --   -0.32851  -0.32795  -0.31324  -0.29016  -0.27125
 Alpha  occ. eigenvalues --   -0.27024  -0.26468  -0.25472  -0.24959  -0.21041
 Alpha virt. eigenvalues --   -0.05801  -0.03071  -0.02899  -0.02041  -0.01283
 Alpha virt. eigenvalues --   -0.00355   0.00418   0.00937   0.01360   0.01733
 Alpha virt. eigenvalues --    0.01969   0.02560   0.02670   0.03004   0.03562

 Mulliken charges:
               1
     1  C   -0.622906
     2  C    0.317046
     3  C   -0.157015
     4  C   -0.850585
     5  C    0.339204
     6  N   -0.339285
     7  C    0.520549
     8  N   -0.541349
     9  N   -0.310239
    10  C    0.071321
    11  N   -0.548347
    12  C    0.268284
    13  C    0.335747
    14  C   -0.760443
    15  C    1.015124
    16  C   -0.697307
    17  N   -0.298972
    18  C   -0.156431
    19  C   -0.033495
    20  C   -0.277930
    21  C   -0.056986
    22  C   -0.159875
    23  C   -0.089408
    24  H    0.155328
    25  H    0.148786
    26  H    0.150688
    27  H    0.121621
    28  H    0.138175
    29  H    0.301321
    30  H    0.304205
    31  H    0.289719
    32  H    0.327707
    33  H    0.148515
    34  H    0.147388
    35  H    0.159921
    36  H    0.114295
    37  H    0.129107
    38  H    0.127864
    39  H    0.130936
    40  H    0.137722
 Sum of Mulliken charges =  -0.00000

 Dipole moment (field-independent basis, Debye):
    X=             -3.2332    Y=              1.5196    Z=             -3.3505  Tot=              4.8978
 Quadrupole moment (field-independent basis, Debye-Ang):
   XX=           -127.8139   YY=           -123.0366   ZZ=           -140.5698
   XY=             -6.4520   XZ=              6.6833   YZ=              7.3097

 Normal termination of Gaussian 16 at Tue Jul 29 15:31:26 2025.
