 Gaussian 16, Revision C.02,
 Gaussian 16:  ES64L-G16RevC.02  7-Dec-2021

 ----------------------------------------------------------
 # td=(50-50,nstates=3) b3lyp/6-31+g(d,p) geom=connectivity
 ----------------------------------------------------------

 -------------------
 Title Card Required
 -------------------
 Symbolic Z-matrix:
 Charge =  0 Multiplicity = 1

                         Standard orientation:
 ---------------------------------------------------------------------
 Center     Atomic      Atomic             Coordinates (Angstroms)
 Number     Number       Type             X           Y           Z
 ---------------------------------------------------------------------
      1          6           0        1.326259    2.895656   -0.831428
      2          6           0        1.948937    1.976042   -0.069703
      3          6           0        2.971399    2.413072    0.847269
      4          7           0        3.783740    2.766320    1.602400
      5          6           0        1.677362    0.515675   -0.108081
      6          6           0        2.647542   -0.437073   -0.243998
      7          6           0        4.135497   -0.292934   -0.456128
      8          6           0        4.935816   -0.877853    0.726430
      9          6           0        4.569214   -0.928814   -1.795255
     10          6           0        1.954372   -1.736656   -0.181602
     11          8           0        2.354557   -2.887262   -0.265854
     12          6           0        0.474505   -1.441094    0.033875
     13          8           0       -0.370184   -2.454197    0.102382
     14          6           0        0.288540   -0.096410    0.078040
     15          6           0       -0.994074    0.583724    0.227400
     16          8           0       -1.215684    1.746876   -0.105735
     17          6           0       -2.133998   -0.177288    0.939025
     18          8           0       -1.881065   -0.757651    1.987367
     19          6           0       -3.486389   -0.102634    0.381120
     20          6           0       -4.576435   -0.796014    0.879112
     21          6           0       -5.753887   -0.605205    0.117158
     22          6           0       -5.549488    0.230615   -0.959241
     23         16           0       -3.928623    0.806841   -1.048402
     24          1           0        0.534936    2.616964   -1.513929
     25          1           0        1.599860    3.943382   -0.765880
     26          1           0        4.361967    0.776245   -0.513959
     27          1           0        6.008121   -0.729980    0.560542
     28          1           0        4.670366   -0.384473    1.666106
     29          1           0        4.754481   -1.952167    0.831429
     30          1           0        5.639130   -0.759570   -1.956425
     31          1           0        4.027126   -0.488790   -2.639135
     32          1           0        4.393181   -2.008604   -1.797266
     33          1           0        0.155208   -3.276254    0.022919
     34          1           0       -4.498731   -1.420824    1.760837
     35          1           0       -6.709666   -1.061204    0.346971
     36          1           0       -6.276208    0.552594   -1.693813
 ---------------------------------------------------------------------

 SCF Done:  E(RB3LYP) =  -1409.43136344     A.U. after   18 cycles

 Excitation energies and oscillator strengths:

 Excited State   1:      Triplet-A      1.1085 eV 1118.53 nm  f=0.0000  <S**2>=2.000
      85 -> 86         0.71075
      85 <- 86         0.14693
 This state for optimization and/or second-order correction.
 Total Energy, E(TD-HF/TD-DFT) =  -1409.39062842
 Copying the excited state density for this state as the 1-particle RhoCI density.

 Excited State   2:      Triplet-A      1.9715 eV  628.89 nm  f=0.0000  <S**2>=2.000
      81 -> 86         0.12814
      83 -> 86        -0.17784
      84 -> 86         0.59888
      84 -> 87        -0.23341

 Excited State   3:      Singlet-A      2.0535 eV  603.78 nm  f=0.0013  <S**2>=0.000
      85 -> 86         0.70496

 Excited State   4:      Singlet-A      2.2321 eV  555.46 nm  f=0.0020  <S**2>=0.000
      83 -> 86        -0.17341
      84 -> 86         0.66201
      84 -> 87        -0.10327

 Excited State   5:      Triplet-A      2.4568 eV  504.66 nm  f=0.0000  <S**2>=2.000
      80 -> 86        -0.33470
      81 -> 86         0.41121
      83 -> 86        -0.11292
      84 -> 87         0.39904

 Excited State   6:      Singlet-A      2.7650 eV  448.40 nm  f=0.0035  <S**2>=0.000
      83 -> 86         0.66993
      84 -> 86         0.19878

 The electronic state is 1-A.
 Alpha  occ. eigenvalues --  -88.93898 -19.24837 -19.20553 -19.17626 -19.16734
 Alpha  occ. eigenvalues --  -14.35735 -10.32222 -10.31041 -10.30994 -10.30409
 Alpha  occ. eigenvalues --  -10.26983 -10.26903 -10.24989 -10.24633 -10.24274
 Alpha  occ. eigenvalues --  -10.24139 -10.24081 -10.22920 -10.22352 -10.22045
 Alpha  occ. eigenvalues --  -10.21838 -10.18933 -10.18447  -7.99742  -5.96156
 Alpha  occ. eigenvalues --   -5.95776  -5.95490  -1.13753  -1.09159  -1.07794
 Alpha  occ. eigenvalues --   -1.05753  -0.92888  -0.91026  -0.90568  -0.84161
 Alpha  occ. eigenvalues --   -0.82300  -0.77335  -0.76246  -0.76106  -0.72390
 Alpha  occ. eigenvalues --   -0.69485  -0.68474  -0.66846  -0.64318  -0.62938
 Alpha  occ. eigenvalues --   -0.59702  -0.58821  -0.57918  -0.55878  -0.54247
 Alpha  occ. eigenvalues --   -0.52563  -0.50173  -0.49585  -0.49084  -0.48537
 Alpha  occ. eigenvalues --   -0.47691  -0.46668  -0.46333  -0.45063  -0.44322
 Alpha  occ. eigenvalues --   -0.43511  -0.43204  -0.42533  -0.42397  -0.41967
 Alpha  occ. eigenvalues --   -0.41733  -0.41048  -0.40187  -0.39684  -0.39117
 Alpha  occ. eigenvalues --   -0.38013  -0.37852  -0.36900  -0.36549  -0.35904
 Alpha  occ. eigenvalues --   -0.35488  -0.35046  -0.33945  -0.32643  -0.30453
 Alpha  occ. eigenvalues --   -0.29736  -0.27804  -0.26510  -0.25524  -0.24790
 Alpha virt. eigenvalues --   -0.14308  -0.10046  -0.07244  -0.05380  -0.01678
 Alpha virt. eigenvalues --   -0.00626  -0.00147   0.00280   0.00899   0.01183
 Alpha virt. eigenvalues --    0.01550   0.01870   0.02568   0.02726   0.03260

 Mulliken charges:
               1
     1  C   -0.305660
     2  C    0.578262
     3  C   -0.270226
     4  N   -0.465885
     5  C    0.494738
     6  C   -0.010547
     7  C    0.486507
     8  C   -0.578763
     9  C   -0.662342
    10  C    0.389637
    11  O   -0.475640
    12  C   -0.610244
    13  O   -0.425026
    14  C    0.597438
    15  C   -0.318852
    16  O   -0.358049
    17  C    0.361415
    18  O   -0.387792
    19  C   -0.261482
    20  C    0.317166
    21  C   -0.278340
    22  C   -0.128938
    23  S    0.027145
    24  H    0.174234
    25  H    0.165648
    26  H    0.127538
    27  H    0.147987
    28  H    0.163180
    29  H    0.165097
    30  H    0.149507
    31  H    0.143658
    32  H    0.172998
    33  H    0.401793
    34  H    0.163181
    35  H    0.143834
    36  H    0.166819
 Sum of Mulliken charges =  -0.00000

 Dipole moment (field-independent basis, Debye):
    X=             -3.0560    Y=             -1.5684    Z=             -4.4960  Tot=              5.6579
 Quadrupole moment (field-independent basis, Debye-Ang):
   XX=           -128.9038   YY=           -143.7086   ZZ=           -146.5485
   XY=             -2.2181   XZ=             -3.8349   YZ=             -8.9411

 Normal termination of Gaussian 16 at Tue Jul 29 15:07:32 2025.
