 Gaussian 16, Revision C.02,
 Gaussian 16:  ES64L-G16RevC.02  7-Dec-2021

 ----------------------------------------------------------
 # td=(50-50,nstates=3) b3lyp/6-31+g(d,p) geom=connectivity
 ----------------------------------------------------------

 -------------------
 Title Card Required
 -------------------
 Symbolic Z-matrix:
 Charge =  0 Multiplicity = 1

                         Standard orientation:
 ---------------------------------------------------------------------
 Center     Atomic      Atomic             Coordinates (Angstroms)
 Number     Number       Type             X           Y           Z
 ---------------------------------------------------------------------
      1          6           0       -0.085216    2.829996   -1.003585
      2          6           0       -0.126136    1.537174   -0.623681
      3          6           0       -1.415162    0.828157   -0.403722
      4          6           0       -1.571972   -0.113524    0.627669
      5          6           0       -2.789310   -0.739397    0.878075
      6          6           0       -3.928509   -0.469273    0.083060
      7          7           0       -5.139111   -1.119449    0.299753
      8          6           0       -6.336687   -0.625580   -0.363229
      9          6           0       -5.318467   -1.895417    1.517446
     10          6           0       -3.772263    0.475817   -0.958904
     11          6           0       -2.548200    1.095343   -1.190643
     12          6           0        1.133133    0.762059   -0.434099
     13          6           0        1.280978   -0.506013   -1.019305
     14          6           0        2.450982   -1.248307   -0.923616
     15          6           0        3.573533   -0.758537   -0.211563
     16          7           0        4.759954   -1.473309   -0.139369
     17          6           0        5.804166   -1.031858    0.773584
     18          6           0        4.787483   -2.857050   -0.589709
     19          6           0        3.427867    0.492991    0.419977
     20          6           0        2.239658    1.234869    0.307842
     21          6           0        2.198248    2.478734    1.030151
     22          7           0        2.236750    3.463044    1.650826
     23          1           0        0.850908    3.332744   -1.220295
     24          1           0       -0.990606    3.421786   -1.091215
     25          1           0       -0.727359   -0.348452    1.268957
     26          1           0       -2.847457   -1.438939    1.702631
     27          1           0       -6.582746    0.411623   -0.083385
     28          1           0       -6.228162   -0.668228   -1.452230
     29          1           0       -7.180412   -1.263230   -0.094510
     30          1           0       -4.580182   -2.701902    1.579594
     31          1           0       -5.236099   -1.283789    2.430683
     32          1           0       -6.306634   -2.358072    1.501904
     33          1           0       -4.604648    0.723331   -1.605947
     34          1           0       -2.468023    1.795622   -2.017149
     35          1           0        0.447068   -0.918135   -1.579011
     36          1           0        2.488547   -2.214658   -1.410711
     37          1           0        6.124639   -0.011590    0.537127
     38          1           0        5.486773   -1.057444    1.828215
     39          1           0        6.672839   -1.681946    0.660804
     40          1           0        4.109748   -3.506363   -0.012818
     41          1           0        4.515012   -2.931787   -1.647997
     42          1           0        5.802326   -3.243424   -0.486132
     43          1           0        4.226563    0.909739    1.018526
 ---------------------------------------------------------------------

 SCF Done:  E(RB3LYP) =  -900.938357468     A.U. after   17 cycles

 Excitation energies and oscillator strengths:

 Excited State   1:      Triplet-A      2.6333 eV  470.83 nm  f=0.0000  <S**2>=2.000
      75 -> 80        -0.14448
      77 -> 79        -0.31000
      78 -> 79         0.44464
      78 -> 80         0.34992
      78 -> 81        -0.10733
 This state for optimization and/or second-order correction.
 Total Energy, E(TD-HF/TD-DFT) =  -900.841585103
 Copying the excited state density for this state as the 1-particle RhoCI density.

 Excited State   2:      Triplet-A      2.9833 eV  415.59 nm  f=0.0000  <S**2>=2.000
      77 -> 79         0.46034
      78 -> 79        -0.12720
      78 -> 80         0.41609
      78 -> 81        -0.20327
      78 -> 84         0.10026

 Excited State   3:      Triplet-A      3.2782 eV  378.21 nm  f=0.0000  <S**2>=2.000
      74 -> 79         0.24217
      74 -> 80        -0.10543
      77 -> 79         0.11921
      77 -> 80         0.35193
      77 -> 81         0.11440
      77 -> 83         0.14330
      77 -> 84        -0.10224
      78 -> 79         0.32863
      78 -> 80        -0.19822
      78 -> 81        -0.25071

 Excited State   4:      Singlet-A      3.3515 eV  369.94 nm  f=0.0269  <S**2>=0.000
      78 -> 79         0.69810

 Excited State   5:      Singlet-A      3.8084 eV  325.56 nm  f=0.1510  <S**2>=0.000
      77 -> 79         0.64653
      78 -> 80         0.24371

 Excited State   6:      Singlet-A      3.9141 eV  316.76 nm  f=0.0587  <S**2>=0.000
      77 -> 79        -0.23761
      78 -> 80         0.63015
      78 -> 81         0.13754

 The electronic state is 1-A.
 Alpha  occ. eigenvalues --  -14.37370 -14.36348 -14.33075 -10.24773 -10.23435
 Alpha  occ. eigenvalues --  -10.23378 -10.23325 -10.23187 -10.22471 -10.22470
 Alpha  occ. eigenvalues --  -10.22412 -10.21006 -10.20672 -10.20401 -10.20339
 Alpha  occ. eigenvalues --  -10.20278 -10.19071 -10.19039 -10.18991 -10.18724
 Alpha  occ. eigenvalues --  -10.18695 -10.17785  -0.96540  -0.95420  -0.90171
 Alpha  occ. eigenvalues --   -0.87016  -0.84951  -0.80251  -0.77775  -0.75758
 Alpha  occ. eigenvalues --   -0.75140  -0.73947  -0.73005  -0.72554  -0.67681
 Alpha  occ. eigenvalues --   -0.66624  -0.64598  -0.61021  -0.60119  -0.59219
 Alpha  occ. eigenvalues --   -0.56384  -0.54247  -0.52738  -0.50555  -0.49893
 Alpha  occ. eigenvalues --   -0.49156  -0.48191  -0.47932  -0.47076  -0.45356
 Alpha  occ. eigenvalues --   -0.45082  -0.44374  -0.44239  -0.42828  -0.42277
 Alpha  occ. eigenvalues --   -0.42177  -0.41866  -0.41391  -0.41258  -0.39951
 Alpha  occ. eigenvalues --   -0.39697  -0.39254  -0.38702  -0.37936  -0.36832
 Alpha  occ. eigenvalues --   -0.36687  -0.35111  -0.35054  -0.34434  -0.33528
 Alpha  occ. eigenvalues --   -0.32256  -0.31009  -0.29610  -0.26163  -0.25671
 Alpha  occ. eigenvalues --   -0.25166  -0.20889  -0.19113
 Alpha virt. eigenvalues --   -0.04947  -0.03140  -0.01104  -0.00863  -0.00633
 Alpha virt. eigenvalues --   -0.00168   0.01168   0.01431   0.01492   0.02394
 Alpha virt. eigenvalues --    0.03006   0.03044   0.03353   0.03634   0.03819

 Mulliken charges:
               1
     1  C   -0.185665
     2  C    0.076338
     3  C    0.340406
     4  C   -0.410558
     5  C   -0.244940
     6  C    0.188063
     7  N   -0.102708
     8  C   -0.299603
     9  C   -0.303281
    10  C   -0.199053
    11  C   -0.505531
    12  C    0.706289
    13  C   -0.564127
    14  C    0.084389
    15  C    0.069474
    16  N   -0.106878
    17  C   -0.303445
    18  C   -0.285415
    19  C   -0.020331
    20  C   -0.232874
    21  C   -0.013327
    22  N   -0.530230
    23  H    0.139791
    24  H    0.131022
    25  H    0.119952
    26  H    0.107167
    27  H    0.150736
    28  H    0.146984
    29  H    0.131479
    30  H    0.146813
    31  H    0.150782
    32  H    0.131641
    33  H    0.107265
    34  H    0.119850
    35  H    0.133649
    36  H    0.114232
    37  H    0.152669
    38  H    0.153526
    39  H    0.135451
    40  H    0.151587
    41  H    0.149694
    42  H    0.135650
    43  H    0.133064
 Sum of Mulliken charges =  -0.00000

 Dipole moment (field-independent basis, Debye):
    X=             -0.6808    Y=             -6.4399    Z=             -1.3383  Tot=              6.6126
 Quadrupole moment (field-independent basis, Debye-Ang):
   XX=            -89.6377   YY=           -142.0510   ZZ=           -136.2523
   XY=            -13.0273   XZ=             -2.7916   YZ=            -11.3595

 Normal termination of Gaussian 16 at Tue Jul 29 07:08:43 2025.
