 Gaussian 16, Revision C.02,
 Gaussian 16:  ES64L-G16RevC.02  7-Dec-2021

 ----------------------------------------------------------
 # td=(50-50,nstates=3) b3lyp/6-31+g(d,p) geom=connectivity
 ----------------------------------------------------------

 -------------------
 Title Card Required
 -------------------
 Symbolic Z-matrix:
 Charge =  0 Multiplicity = 1

                         Standard orientation:
 ---------------------------------------------------------------------
 Center     Atomic      Atomic             Coordinates (Angstroms)
 Number     Number       Type             X           Y           Z
 ---------------------------------------------------------------------
      1          6           0        0.776751   -3.251283   -1.746381
      2          8           0        0.476606   -1.895522   -1.384503
      3          6           0        1.046910   -1.474260   -0.205411
      4          8           0        2.485850   -1.196702   -0.391272
      5          6           0        2.723712    0.063342    0.009925
      6          6           0        4.109016    0.517115   -0.004501
      7          6           0        4.450954    1.810746    0.436955
      8          6           0        5.776614    2.233500    0.416116
      9          6           0        6.781741    1.374425   -0.043493
     10          6           0        6.452215    0.088656   -0.482094
     11          6           0        5.126650   -0.340807   -0.463961
     12          6           0        1.573463    0.725325    0.385890
     13          6           0        0.462883   -0.142150    0.246704
     14          6           0       -0.897313    0.209604    0.332356
     15          6           0       -1.208299    1.618594    0.281547
     16          6           0       -2.441428    2.098434   -0.043122
     17          8           0       -2.625208    3.445465   -0.216748
     18          6           0       -3.508066    4.088694    0.715674
     19          6           0       -3.494004    1.157566   -0.351325
     20          8           0       -4.652891    1.706542   -0.775245
     21          6           0       -5.723739    0.838826   -1.159310
     22          6           0       -3.281254   -0.189651   -0.173525
     23          6           0       -2.034720   -0.707088    0.299067
     24          6           0       -2.018109   -2.039898    0.786669
     25          6           0       -1.019359   -2.563407    1.635020
     26          7           0       -0.191852   -3.003688    2.336071
     27          6           0       -3.127786   -2.902081    0.557960
     28          7           0       -4.046516   -3.593517    0.352554
     29          1           0        0.163688   -3.471511   -2.620752
     30          1           0        1.836008   -3.361699   -2.001541
     31          1           0        0.515845   -3.935942   -0.930840
     32          1           0        1.036695   -2.251504    0.568570
     33          1           0        3.681884    2.485028    0.798924
     34          1           0        6.028426    3.232103    0.759678
     35          1           0        7.815472    1.706597   -0.057813
     36          1           0        7.229275   -0.580869   -0.838035
     37          1           0        4.867419   -1.337536   -0.801859
     38          1           0        1.546736    1.747574    0.728138
     39          1           0       -0.419126    2.351065    0.392868
     40          1           0       -3.514490    5.144469    0.440051
     41          1           0       -4.521624    3.683870    0.646898
     42          1           0       -3.127942    3.978338    1.738928
     43          1           0       -6.516875    1.495088   -1.516951
     44          1           0       -5.408263    0.163937   -1.962086
     45          1           0       -6.082185    0.255114   -0.304296
     46          1           0       -4.098211   -0.887160   -0.302677
 ---------------------------------------------------------------------

 SCF Done:  E(RB3LYP) =  -1259.52797516     A.U. after   17 cycles

 Excitation energies and oscillator strengths:

 Excited State   1:      Triplet-A      0.9158 eV 1353.83 nm  f=0.0000  <S**2>=2.000
      98 -> 99         0.71655
      98 <- 99         0.16848
 This state for optimization and/or second-order correction.
 Total Energy, E(TD-HF/TD-DFT) =  -1259.49431993
 Copying the excited state density for this state as the 1-particle RhoCI density.

 Excited State   2:      Singlet-A      2.0955 eV  591.67 nm  f=0.3535  <S**2>=0.000
      98 -> 99         0.70837
      98 <- 99        -0.11779

 Excited State   3:      Triplet-A      2.2284 eV  556.37 nm  f=0.0000  <S**2>=2.000
      97 -> 99         0.66587
      98 ->100         0.19004

 Excited State   4:      Triplet-A      2.8336 eV  437.55 nm  f=0.0000  <S**2>=2.000
      96 -> 99         0.34699
      97 -> 99        -0.17357
      97 ->100         0.15781
      98 ->100         0.51688
      98 ->102        -0.14194

 Excited State   5:      Singlet-A      3.0030 eV  412.87 nm  f=0.4037  <S**2>=0.000
      97 -> 99         0.65665
      98 ->100        -0.21218

 Excited State   6:      Singlet-A      3.4192 eV  362.61 nm  f=0.1315  <S**2>=0.000
      97 -> 99         0.20318
      98 ->100         0.65743
      98 ->102        -0.10241

 The electronic state is 1-A.
 Alpha  occ. eigenvalues --  -19.22131 -19.21642 -19.19435 -19.18673 -14.33759
 Alpha  occ. eigenvalues --  -14.33253 -10.32172 -10.30260 -10.28382 -10.26488
 Alpha  occ. eigenvalues --  -10.26062 -10.25330 -10.25126 -10.24704 -10.24478
 Alpha  occ. eigenvalues --  -10.24263 -10.23924 -10.23518 -10.23475 -10.23043
 Alpha  occ. eigenvalues --  -10.22936 -10.22668 -10.22552 -10.22435 -10.22299
 Alpha  occ. eigenvalues --  -10.22135 -10.21582 -10.20768  -1.12884  -1.10251
 Alpha  occ. eigenvalues --   -1.06640  -1.06600  -0.91526  -0.89814  -0.89212
 Alpha  occ. eigenvalues --   -0.88820  -0.84523  -0.81823  -0.81442  -0.78137
 Alpha  occ. eigenvalues --   -0.77569  -0.75879  -0.75343  -0.73458  -0.70180
 Alpha  occ. eigenvalues --   -0.69494  -0.65755  -0.64974  -0.63426  -0.63299
 Alpha  occ. eigenvalues --   -0.60118  -0.59499  -0.57633  -0.56515  -0.55564
 Alpha  occ. eigenvalues --   -0.53840  -0.53298  -0.52605  -0.51028  -0.50457
 Alpha  occ. eigenvalues --   -0.49557  -0.48724  -0.48163  -0.47139  -0.46987
 Alpha  occ. eigenvalues --   -0.46775  -0.46282  -0.45609  -0.45299  -0.44817
 Alpha  occ. eigenvalues --   -0.44379  -0.43582  -0.42873  -0.41536  -0.41018
 Alpha  occ. eigenvalues --   -0.39730  -0.39296  -0.39228  -0.38542  -0.38350
 Alpha  occ. eigenvalues --   -0.37486  -0.37231  -0.36861  -0.36125  -0.35972
 Alpha  occ. eigenvalues --   -0.35340  -0.34947  -0.33929  -0.33439  -0.32507
 Alpha  occ. eigenvalues --   -0.31188  -0.30640  -0.29853  -0.29193  -0.28519
 Alpha  occ. eigenvalues --   -0.27263  -0.24482  -0.20176
 Alpha virt. eigenvalues --   -0.12004  -0.06072  -0.03927  -0.02632  -0.01246
 Alpha virt. eigenvalues --   -0.00680  -0.00136   0.00253   0.00399   0.00805
 Alpha virt. eigenvalues --    0.01239   0.02053   0.02194   0.02493   0.02732

 Mulliken charges:
               1
     1  C   -0.102214
     2  O   -0.208524
     3  C    0.275944
     4  O   -0.303588
     5  C    0.185337
     6  C    0.320019
     7  C   -0.527223
     8  C   -0.255242
     9  C   -0.130436
    10  C   -0.190883
    11  C    0.135629
    12  C   -0.343279
    13  C    0.056088
    14  C    0.386980
    15  C   -0.173898
    16  C   -0.258385
    17  O   -0.369066
    18  C   -0.169762
    19  C    0.082320
    20  O   -0.370605
    21  C   -0.143523
    22  C   -0.412008
    23  C    1.176833
    24  C    0.773938
    25  C   -0.672477
    26  N   -0.458868
    27  C   -0.405253
    28  N   -0.507716
    29  H    0.153538
    30  H    0.149535
    31  H    0.150670
    32  H    0.156616
    33  H    0.123910
    34  H    0.135671
    35  H    0.134869
    36  H    0.136590
    37  H    0.150996
    38  H    0.129929
    39  H    0.122811
    40  H    0.147856
    41  H    0.156113
    42  H    0.139167
    43  H    0.154908
    44  H    0.160079
    45  H    0.159695
    46  H    0.146910
 Sum of Mulliken charges =  -0.00000

 Dipole moment (field-independent basis, Debye):
    X=              4.1462    Y=              6.3913    Z=             -2.2989  Tot=              7.9577
 Quadrupole moment (field-independent basis, Debye-Ang):
   XX=           -128.4918   YY=           -173.2695   ZZ=           -172.9195
   XY=            -17.0173   XZ=              1.3214   YZ=             21.1476

 Normal termination of Gaussian 16 at Tue Jul 29 02:20:21 2025.
