 Gaussian 16, Revision C.02,
 Gaussian 16:  ES64L-G16RevC.02  7-Dec-2021

 ----------------------------------------------------------
 # td=(50-50,nstates=3) b3lyp/6-31+g(d,p) geom=connectivity
 ----------------------------------------------------------

 -------------------
 Title Card Required
 -------------------
 Symbolic Z-matrix:
 Charge =  0 Multiplicity = 1

                         Standard orientation:
 ---------------------------------------------------------------------
 Center     Atomic      Atomic             Coordinates (Angstroms)
 Number     Number       Type             X           Y           Z
 ---------------------------------------------------------------------
      1          6           0       -3.951911    1.017591    1.474774
      2          6           0       -3.637870    0.518609    0.265579
      3          6           0       -4.689386    0.165426   -0.656196
      4          7           0       -5.539420   -0.133467   -1.391591
      5          6           0       -2.254261    0.321179   -0.209741
      6          6           0       -1.180081   -0.322461    0.283653
      7          6           0       -0.995829   -1.184626    1.518653
      8          6           0       -0.607331   -0.365134    2.769481
      9          6           0       -2.181638   -2.121846    1.813166
     10          6           0       -0.071134   -0.175152   -0.754285
     11          6           0        1.240906    0.431773   -0.271251
     12          6           0        1.285648    1.789335    0.070005
     13          6           0        2.452923    2.421879    0.513923
     14          6           0        2.461613    3.898900    0.824191
     15          6           0        3.619760    1.653564    0.632461
     16          6           0        3.608999    0.300802    0.305971
     17          6           0        2.431849   -0.301396   -0.146263
     18         16           0        2.525273   -2.062628   -0.497406
     19          8           0        1.988625   -2.827187    0.640542
     20          8           0        2.057538   -2.346639   -1.861323
     21          6           0       -0.730971    0.679379   -1.844494
     22          8           0       -0.266994    1.115952   -2.861132
     23          8           0       -2.034112    0.911096   -1.468554
     24          1           0       -3.176139    1.323488    2.166449
     25          1           0       -4.985389    1.126876    1.784635
     26          1           0       -0.138197   -1.829757    1.296046
     27          1           0       -0.336040   -1.041920    3.586655
     28          1           0        0.248011    0.288830    2.576625
     29          1           0       -1.440320    0.257105    3.113938
     30          1           0       -1.908206   -2.812638    2.617430
     31          1           0       -2.444561   -2.717542    0.933605
     32          1           0       -3.073895   -1.576860    2.133390
     33          1           0        0.126310   -1.151190   -1.215330
     34          1           0        0.377653    2.379812   -0.025575
     35          1           0        1.469356    4.253045    1.116973
     36          1           0        3.162159    4.132978    1.631202
     37          1           0        2.769459    4.475498   -0.056655
     38          1           0        4.540648    2.114484    0.978011
     39          1           0        4.522124   -0.281222    0.405801
     40          1           0        3.890439   -2.197378   -0.477581
 ---------------------------------------------------------------------

 SCF Done:  E(RB3LYP) =  -1411.81718634     A.U. after   17 cycles

 Excitation energies and oscillator strengths:

 Excited State   1:      Triplet-A      2.8235 eV  439.11 nm  f=0.0000  <S**2>=2.000
      83 -> 88        -0.24154
      84 -> 88         0.21180
      87 -> 88         0.58830
      87 -> 91         0.10882
 This state for optimization and/or second-order correction.
 Total Energy, E(TD-HF/TD-DFT) =  -1411.71342440
 Copying the excited state density for this state as the 1-particle RhoCI density.

 Excited State   2:      Triplet-A      3.5691 eV  347.38 nm  f=0.0000  <S**2>=2.000
      83 -> 89         0.11037
      83 -> 90        -0.11992
      84 -> 88         0.10037
      84 -> 89         0.10267
      84 -> 90        -0.13909
      85 -> 89        -0.12095
      85 -> 90        -0.35943
      86 -> 88         0.13065
      86 -> 89         0.47253

 Excited State   3:      Triplet-A      3.5806 eV  346.26 nm  f=0.0000  <S**2>=2.000
      83 -> 88         0.37815
      84 -> 88        -0.35584
      87 -> 88         0.20634
      87 -> 91         0.29498
      87 -> 94         0.10911

 Excited State   4:      Singlet-A      4.0209 eV  308.35 nm  f=0.0869  <S**2>=0.000
      87 -> 88         0.69259

 Excited State   5:      Singlet-A      4.5653 eV  271.58 nm  f=0.0071  <S**2>=0.000
      87 -> 89         0.68912
      87 -> 90        -0.13264

 Excited State   6:      Singlet-A      4.7603 eV  260.45 nm  f=0.0004  <S**2>=0.000
      85 -> 88         0.23559
      86 -> 88         0.63408

 The electronic state is 1-A.
 Alpha  occ. eigenvalues --  -89.13104 -19.23037 -19.17762 -19.17712 -19.16869
 Alpha  occ. eigenvalues --  -14.35751 -10.34364 -10.28702 -10.27510 -10.26161
 Alpha  occ. eigenvalues --  -10.25868 -10.24850 -10.24783 -10.24774 -10.24593
 Alpha  occ. eigenvalues --  -10.24540 -10.23447 -10.23380 -10.23262 -10.22037
 Alpha  occ. eigenvalues --  -10.21658 -10.19797 -10.19087  -8.15967  -6.12380
 Alpha  occ. eigenvalues --   -6.12341  -6.12305  -1.13935  -1.13205  -1.05879
 Alpha  occ. eigenvalues --   -1.02905  -0.92465  -0.91514  -0.86896  -0.85097
 Alpha  occ. eigenvalues --   -0.82988  -0.81284  -0.77864  -0.75447  -0.74408
 Alpha  occ. eigenvalues --   -0.70213  -0.69893  -0.68114  -0.65827  -0.64391
 Alpha  occ. eigenvalues --   -0.62707  -0.60909  -0.57540  -0.56891  -0.54474
 Alpha  occ. eigenvalues --   -0.53519  -0.51479  -0.50559  -0.49966  -0.48964
 Alpha  occ. eigenvalues --   -0.48387  -0.47950  -0.47681  -0.46901  -0.46334
 Alpha  occ. eigenvalues --   -0.45361  -0.44804  -0.44369  -0.43265  -0.42526
 Alpha  occ. eigenvalues --   -0.41817  -0.41046  -0.40744  -0.40087  -0.40001
 Alpha  occ. eigenvalues --   -0.39416  -0.38753  -0.37766  -0.37370  -0.36740
 Alpha  occ. eigenvalues --   -0.36289  -0.35995  -0.35705  -0.34881  -0.34316
 Alpha  occ. eigenvalues --   -0.33766  -0.32528  -0.30912  -0.30133  -0.29100
 Alpha  occ. eigenvalues --   -0.28368  -0.25920
 Alpha virt. eigenvalues --   -0.08681  -0.06618  -0.05898  -0.03965  -0.02890
 Alpha virt. eigenvalues --   -0.01562  -0.00711  -0.00280   0.00445   0.00729
 Alpha virt. eigenvalues --    0.01037   0.01770   0.01951   0.02225   0.02588

 Mulliken charges:
               1
     1  C   -0.493005
     2  C   -0.163007
     3  C    0.120886
     4  N   -0.485871
     5  C    1.101714
     6  C   -0.361714
     7  C    0.117007
     8  C   -0.581865
     9  C   -0.616740
    10  C   -0.436809
    11  C    1.350158
    12  C   -0.319794
    13  C   -0.036348
    14  C   -0.497546
    15  C   -0.287452
    16  C   -0.226391
    17  C   -0.300036
    18  S    0.993850
    19  O   -0.486494
    20  O   -0.428575
    21  C    0.090445
    22  O   -0.385864
    23  O   -0.178579
    24  H    0.152527
    25  H    0.169892
    26  H    0.180156
    27  H    0.155571
    28  H    0.153233
    29  H    0.127801
    30  H    0.151160
    31  H    0.156695
    32  H    0.152189
    33  H    0.205273
    34  H    0.125348
    35  H    0.159685
    36  H    0.160153
    37  H    0.181980
    38  H    0.136481
    39  H    0.134963
    40  H    0.008924
 Sum of Mulliken charges =  -0.00000

 Dipole moment (field-independent basis, Debye):
    X=              5.5113    Y=              3.6502    Z=              7.4754  Tot=              9.9789
 Quadrupole moment (field-independent basis, Debye-Ang):
   XX=           -142.2309   YY=           -143.3898   ZZ=           -159.8505
   XY=              3.4151   XZ=            -14.6572   YZ=              6.5982

 Normal termination of Gaussian 16 at Tue Jul 29 07:15:33 2025.
