 Gaussian 16, Revision C.02,
 Gaussian 16:  ES64L-G16RevC.02  7-Dec-2021

 ----------------------------------------------------------
 # td=(50-50,nstates=3) b3lyp/6-31+g(d,p) geom=connectivity
 ----------------------------------------------------------

 -------------------
 Title Card Required
 -------------------
 Symbolic Z-matrix:
 Charge =  0 Multiplicity = 1

                         Standard orientation:
 ---------------------------------------------------------------------
 Center     Atomic      Atomic             Coordinates (Angstroms)
 Number     Number       Type             X           Y           Z
 ---------------------------------------------------------------------
      1          6           0        2.595456    2.824018    0.173274
      2          7           0        2.466693    1.374679    0.287180
      3          6           0        3.705614    0.601963    0.208642
      4          6           0        3.505504   -0.784206    0.797784
      5          7           0        2.412863   -1.481524    0.120759
      6          6           0        2.334789   -2.919733    0.369537
      7          6           0        1.276850   -0.752270   -0.123085
      8          6           0        0.008550   -1.146491   -0.486035
      9          6           0       -0.419644   -2.446791   -0.838188
     10          7           0       -0.770751   -3.499122   -1.204903
     11          6           0       -0.896519    0.064648   -0.643819
     12          6           0       -2.095618    0.080873    0.338612
     13          6           0       -3.114049    1.238789    0.117557
     14          6           0       -4.479244    0.643905    0.560117
     15          6           0       -4.150812   -0.825208    0.944594
     16          7           0       -2.876956   -1.164246    0.294660
     17          6           0        0.071317    1.217100   -0.419046
     18          6           0       -0.317467    2.563534   -0.591013
     19          7           0       -0.676805    3.662947   -0.760785
     20          6           0        1.314266    0.731115   -0.072426
     21          1           0        1.731882    3.318965    0.616269
     22          1           0        3.488919    3.134865    0.719882
     23          1           0        2.686854    3.152606   -0.871328
     24          1           0        4.471925    1.128213    0.784808
     25          1           0        4.059005    0.522673   -0.832111
     26          1           0        3.315574   -0.706613    1.881149
     27          1           0        4.419894   -1.368052    0.657887
     28          1           0        3.350185   -3.321917    0.388690
     29          1           0        1.846179   -3.140921    1.329801
     30          1           0        1.782548   -3.421270   -0.423403
     31          1           0       -1.296065    0.105069   -1.669561
     32          1           0       -1.681074    0.157075    1.354371
     33          1           0       -2.845636    2.137287    0.678354
     34          1           0       -3.138534    1.522291   -0.940882
     35          1           0       -5.201697    0.679020   -0.262158
     36          1           0       -4.918941    1.195002    1.397825
     37          1           0       -4.014543   -0.912138    2.030262
     38          1           0       -4.926100   -1.539742    0.654713
     39          1           0       -3.049639   -1.439024   -0.671975
 ---------------------------------------------------------------------

 SCF Done:  E(RB3LYP) =  -856.785216617     A.U. after   17 cycles

 Excitation energies and oscillator strengths:

 Excited State   1:      Triplet-A      2.1268 eV  582.97 nm  f=0.0000  <S**2>=2.000
      72 -> 73         0.69797
      72 <- 73         0.10659
 This state for optimization and/or second-order correction.
 Total Energy, E(TD-HF/TD-DFT) =  -856.707059780
 Copying the excited state density for this state as the 1-particle RhoCI density.

 Excited State   2:      Triplet-A      2.8245 eV  438.95 nm  f=0.0000  <S**2>=2.000
      70 -> 73         0.67597
      72 -> 79         0.10001

 Excited State   3:      Singlet-A      3.5506 eV  349.19 nm  f=0.0333  <S**2>=0.000
      71 -> 73         0.53669
      72 -> 73        -0.45618

 Excited State   4:      Triplet-A      3.5553 eV  348.73 nm  f=0.0000  <S**2>=2.000
      70 -> 73        -0.10297
      71 -> 73         0.69607

 Excited State   5:      Singlet-A      3.6507 eV  339.61 nm  f=0.0732  <S**2>=0.000
      71 -> 73         0.45653
      72 -> 73         0.53597

 Excited State   6:      Singlet-A      4.0639 eV  305.09 nm  f=0.2137  <S**2>=0.000
      70 -> 73         0.67938
      72 -> 74         0.11316
      72 -> 79        -0.10141

 The electronic state is 1-A.
 Alpha  occ. eigenvalues --  -14.40011 -14.39700 -14.33415 -14.33007 -14.32145
 Alpha  occ. eigenvalues --  -10.27500 -10.27217 -10.26123 -10.26003 -10.24096
 Alpha  occ. eigenvalues --  -10.23692 -10.23165 -10.22833 -10.22782 -10.22771
 Alpha  occ. eigenvalues --  -10.22655 -10.22329 -10.20615 -10.18197 -10.18099
 Alpha  occ. eigenvalues --   -1.01356  -0.96962  -0.92570  -0.90586  -0.89963
 Alpha  occ. eigenvalues --   -0.87915  -0.80039  -0.77681  -0.77394  -0.75464
 Alpha  occ. eigenvalues --   -0.72468  -0.72204  -0.68021  -0.66303  -0.64872
 Alpha  occ. eigenvalues --   -0.59948  -0.57849  -0.56747  -0.56655  -0.53934
 Alpha  occ. eigenvalues --   -0.52764  -0.49736  -0.49285  -0.48245  -0.48101
 Alpha  occ. eigenvalues --   -0.47529  -0.46649  -0.45321  -0.44003  -0.43568
 Alpha  occ. eigenvalues --   -0.42387  -0.41967  -0.41759  -0.41553  -0.41126
 Alpha  occ. eigenvalues --   -0.39390  -0.38645  -0.36995  -0.36809  -0.36100
 Alpha  occ. eigenvalues --   -0.35783  -0.35517  -0.34497  -0.34417  -0.33839
 Alpha  occ. eigenvalues --   -0.32441  -0.32086  -0.31551  -0.31000  -0.23547
 Alpha  occ. eigenvalues --   -0.23015  -0.21628
 Alpha virt. eigenvalues --   -0.07218  -0.02082  -0.00095   0.00281   0.00668
 Alpha virt. eigenvalues --    0.00811   0.01002   0.01735   0.02118   0.02571
 Alpha virt. eigenvalues --    0.02765   0.03242   0.04009   0.04157   0.04661

 Mulliken charges:
               1
     1  C   -0.277570
     2  N   -0.155068
     3  C   -0.222738
     4  C   -0.189649
     5  N   -0.130195
     6  C   -0.230814
     7  C   -0.395444
     8  C    0.137249
     9  C    0.333254
    10  N   -0.602812
    11  C    0.995619
    12  C   -0.912408
    13  C    0.065082
    14  C   -0.500158
    15  C   -0.043959
    16  N   -0.136863
    17  C   -0.045483
    18  C   -0.029136
    19  N   -0.591126
    20  C   -0.125721
    21  H    0.178408
    22  H    0.139618
    23  H    0.169426
    24  H    0.143265
    25  H    0.162431
    26  H    0.159848
    27  H    0.143602
    28  H    0.138723
    29  H    0.164630
    30  H    0.183299
    31  H    0.161895
    32  H    0.134166
    33  H    0.165758
    34  H    0.149820
    35  H    0.145469
    36  H    0.143909
    37  H    0.138147
    38  H    0.135012
    39  H    0.300510
 Sum of Mulliken charges =  -0.00000

 Dipole moment (field-independent basis, Debye):
    X=              6.1475    Y=              0.4693    Z=              2.5530  Tot=              6.6731
 Quadrupole moment (field-independent basis, Debye-Ang):
   XX=            -93.3163   YY=           -150.6561   ZZ=           -122.0661
   XY=             -0.6217   XZ=              2.8796   YZ=             -1.2492

 Normal termination of Gaussian 16 at Wed Aug 13 13:12:14 2025.
