 Gaussian 16, Revision C.02,
 Gaussian 16:  ES64L-G16RevC.02  7-Dec-2021

 ----------------------------------------------------------
 # td=(50-50,nstates=3) b3lyp/6-31+g(d,p) geom=connectivity
 ----------------------------------------------------------

 -------------------
 Title Card Required
 -------------------
 Symbolic Z-matrix:
 Charge =  0 Multiplicity = 1

                         Standard orientation:
 ---------------------------------------------------------------------
 Center     Atomic      Atomic             Coordinates (Angstroms)
 Number     Number       Type             X           Y           Z
 ---------------------------------------------------------------------
      1          6           0       -6.640578    1.123039    0.001296
      2          6           0       -5.555035    0.047428    0.000638
      3          7           0       -4.152517    0.530876    0.000253
      4          6           0       -3.920517    1.986062    0.000574
      5          6           0       -2.491215    2.524308   -0.000490
      6          6           0       -3.236806   -0.478118    0.000159
      7          7           0       -3.581756   -1.740455    0.000342
      8          6           0       -2.334654   -2.477884   -0.000061
      9          6           0       -1.288164   -1.379897   -0.000397
     10         16           0        0.429740   -1.707251   -0.001140
     11          6           0        1.086299    0.009677   -0.001522
     12          6           0        2.599089    0.090408   -0.000772
     13          6           0        3.447008   -1.024287    0.000842
     14          6           0        4.833595   -0.871164    0.001482
     15          6           0        5.399419    0.412171    0.000520
     16          6           0        6.824950    0.575397    0.001169
     17          7           0        7.981144    0.709905    0.001695
     18          6           0        4.558030    1.539586   -0.001088
     19          6           0        3.178299    1.371694   -0.001725
     20          7           0       -1.828749   -0.207504   -0.000368
     21          1           0       -7.609943    0.614480    0.001613
     22          1           0       -6.609099    1.761503    0.889103
     23          1           0       -6.609875    1.761856   -0.886282
     24          1           0       -5.683385   -0.604195   -0.871826
     25          1           0       -5.682749   -0.604600    0.872881
     26          1           0       -4.430583    2.402643   -0.876995
     27          1           0       -4.429167    2.402166    0.879211
     28          1           0       -2.566619    3.618057   -0.000363
     29          1           0       -1.928283    2.214413    0.881071
     30          1           0       -1.929659    2.214510   -0.882970
     31          1           0       -2.239077   -3.125140   -0.883259
     32          1           0       -2.238385   -3.125012    0.883175
     33          1           0        0.677697    0.516219   -0.880586
     34          1           0        0.676696    0.516877    0.876692
     35          1           0        3.035639   -2.028172    0.001674
     36          1           0        5.478188   -1.743712    0.002723
     37          1           0        4.990428    2.534540   -0.001829
     38          1           0        2.537171    2.249316   -0.002987
 ---------------------------------------------------------------------

 SCF Done:  E(RB3LYP) =  -1199.64993012     A.U. after   16 cycles

 Excitation energies and oscillator strengths:

 Excited State   1:      Triplet-A      3.1537 eV  393.14 nm  f=0.0000  <S**2>=2.000
      75 -> 78        -0.10893
      75 -> 79        -0.11760
      76 -> 78         0.46024
      76 -> 79         0.47330
      76 -> 99        -0.12766
 This state for optimization and/or second-order correction.
 Total Energy, E(TD-HF/TD-DFT) =  -1199.53403345
 Copying the excited state density for this state as the 1-particle RhoCI density.

 Excited State   2:      Triplet-A      3.3613 eV  368.86 nm  f=0.0000  <S**2>=2.000
      72 -> 78         0.23460
      72 -> 79        -0.16627
      73 -> 77         0.62556
      75 -> 77        -0.11532

 Excited State   3:      Singlet-A      3.6417 eV  340.46 nm  f=0.0001  <S**2>=0.000
      76 -> 77         0.70585

 Excited State   4:      Triplet-A      3.6421 eV  340.42 nm  f=0.0000  <S**2>=2.000
      76 -> 77         0.70115

 Excited State   5:      Singlet-A      3.9988 eV  310.05 nm  f=0.0319  <S**2>=0.000
      76 -> 78         0.63378
      76 -> 79         0.30184

 Excited State   6:      Singlet-A      4.3520 eV  284.89 nm  f=0.0109  <S**2>=0.000
      76 -> 78        -0.30703
      76 -> 79         0.63421

 The electronic state is 1-A.
 Alpha  occ. eigenvalues --  -88.92028 -14.36819 -14.35066 -14.34593 -14.30315
 Alpha  occ. eigenvalues --  -10.27963 -10.27655 -10.25391 -10.24990 -10.24521
 Alpha  occ. eigenvalues --  -10.24231 -10.23514 -10.23412 -10.23376 -10.22924
 Alpha  occ. eigenvalues --  -10.22762 -10.22699 -10.22131 -10.19201 -10.18755
 Alpha  occ. eigenvalues --   -7.98008  -5.94521  -5.94105  -5.93559  -1.01185
 Alpha  occ. eigenvalues --   -0.94068  -0.92095  -0.89684  -0.86668  -0.83589
 Alpha  occ. eigenvalues --   -0.79540  -0.78465  -0.77591  -0.76335  -0.72846
 Alpha  occ. eigenvalues --   -0.69250  -0.65034  -0.64804  -0.63704  -0.63142
 Alpha  occ. eigenvalues --   -0.57893  -0.56471  -0.53685  -0.51185  -0.50317
 Alpha  occ. eigenvalues --   -0.49592  -0.49289  -0.48070  -0.47744  -0.47024
 Alpha  occ. eigenvalues --   -0.46610  -0.45767  -0.44742  -0.44372  -0.42238
 Alpha  occ. eigenvalues --   -0.41332  -0.40111  -0.39639  -0.39361  -0.39164
 Alpha  occ. eigenvalues --   -0.38721  -0.37231  -0.37068  -0.36753  -0.36586
 Alpha  occ. eigenvalues --   -0.36161  -0.35475  -0.35228  -0.34254  -0.31894
 Alpha  occ. eigenvalues --   -0.30275  -0.29024  -0.27464  -0.26328  -0.25375
 Alpha  occ. eigenvalues --   -0.21519
 Alpha virt. eigenvalues --   -0.06820  -0.04837  -0.03756  -0.01478  -0.00610
 Alpha virt. eigenvalues --   -0.00196   0.00633   0.00867   0.01730   0.01839
 Alpha virt. eigenvalues --    0.02057   0.02692   0.02984   0.03343   0.03818

 Mulliken charges:
               1
     1  C   -0.584962
     2  C    0.125160
     3  N   -0.194291
     4  C    0.136579
     5  C   -0.688314
     6  C   -0.218578
     7  N   -0.362133
     8  C   -0.342181
     9  C    0.196341
    10  S    0.123226
    11  C   -0.588472
    12  C   -0.074331
    13  C   -0.470164
    14  C    0.535243
    15  C    0.479638
    16  C   -0.144353
    17  N   -0.527046
    18  C    0.055961
    19  C   -0.021712
    20  N   -0.281760
    21  H    0.152124
    22  H    0.149329
    23  H    0.149321
    24  H    0.161942
    25  H    0.161968
    26  H    0.137545
    27  H    0.137554
    28  H    0.134599
    29  H    0.163759
    30  H    0.163749
    31  H    0.164554
    32  H    0.164543
    33  H    0.217774
    34  H    0.217840
    35  H    0.132889
    36  H    0.150760
    37  H    0.149791
    38  H    0.136109
 Sum of Mulliken charges =  -0.00000

 Dipole moment (field-independent basis, Debye):
    X=             -4.6143    Y=              1.5722    Z=             -0.0022  Tot=              4.8748
 Quadrupole moment (field-independent basis, Debye-Ang):
   XX=           -177.3976   YY=           -119.3161   ZZ=           -129.4401
   XY=            -15.0082   XZ=             -0.0158   YZ=             -0.0102

 Normal termination of Gaussian 16 at Wed Aug 13 12:39:35 2025.
