 Gaussian 16, Revision C.02,
 Gaussian 16:  ES64L-G16RevC.02  7-Dec-2021

 ----------------------------------------------------------
 # td=(50-50,nstates=3) b3lyp/6-31+g(d,p) geom=connectivity
 ----------------------------------------------------------

 -------------------
 Title Card Required
 -------------------
 Symbolic Z-matrix:
 Charge =  0 Multiplicity = 1

                         Standard orientation:
 ---------------------------------------------------------------------
 Center     Atomic      Atomic             Coordinates (Angstroms)
 Number     Number       Type             X           Y           Z
 ---------------------------------------------------------------------
      1          6           0        1.217041    2.634537   -0.709658
      2          6           0        1.610156    1.217208   -0.470627
      3          7           0        2.816095    0.918803   -0.074456
      4          8           0        3.792007    1.699890    0.222855
      5          6           0        3.076791   -0.559390   -0.072541
      6          8           0        3.922793   -0.875476    0.981881
      7          6           0        1.663109   -1.174756   -0.009425
      8          6           0        1.594258   -2.516658   -0.751244
      9          6           0        1.228930   -1.363884    1.453140
     10          6           0        0.827543   -0.046972   -0.757295
     11          6           0       -0.656807    0.011412   -0.447530
     12          6           0       -1.164870    0.696068    0.667016
     13          6           0       -2.532389    0.722088    0.942758
     14          6           0       -3.412346    0.052150    0.092027
     15         17           0       -5.136964    0.080699    0.430661
     16          6           0       -2.941097   -0.632349   -1.027191
     17          6           0       -1.569343   -0.641742   -1.288454
     18          1           0        0.210835    2.699624   -1.126737
     19          1           0        1.253602    3.214781    0.220251
     20          1           0        1.930604    3.109308   -1.394387
     21          1           0        3.559757   -0.770560   -1.041039
     22          1           0        4.522733   -0.107704    1.066948
     23          1           0        0.569528   -2.902858   -0.757168
     24          1           0        1.928907   -2.423042   -1.790710
     25          1           0        2.227761   -3.261021   -0.257882
     26          1           0        1.894864   -2.076776    1.944320
     27          1           0        1.274963   -0.431804    2.023168
     28          1           0        0.206682   -1.748117    1.500555
     29          1           0        0.911433   -0.255740   -1.836561
     30          1           0       -0.488146    1.220044    1.335093
     31          1           0       -2.911090    1.256724    1.807067
     32          1           0       -3.633964   -1.142547   -1.687357
     33          1           0       -1.206999   -1.165413   -2.169341
 ---------------------------------------------------------------------

 SCF Done:  E(RB3LYP) =  -1170.41365619     A.U. after   16 cycles

 Excitation energies and oscillator strengths:

 Excited State   1:      Triplet-A      2.6066 eV  475.66 nm  f=0.0000  <S**2>=2.000
      67 -> 68         0.24920
      67 -> 69        -0.12281
      67 -> 70         0.64363
      67 <- 70         0.13950
 This state for optimization and/or second-order correction.
 Total Energy, E(TD-HF/TD-DFT) =  -1170.31786652
 Copying the excited state density for this state as the 1-particle RhoCI density.

 Excited State   2:      Triplet-A      3.5973 eV  344.66 nm  f=0.0000  <S**2>=2.000
      64 -> 69        -0.38490
      65 -> 68        -0.23430
      66 -> 68         0.47244
      66 -> 70        -0.11414
      67 -> 68        -0.14922

 Excited State   3:      Triplet-A      4.3334 eV  286.11 nm  f=0.0000  <S**2>=2.000
      64 -> 68        -0.17516
      65 -> 69        -0.23043
      66 -> 69         0.51495
      67 -> 69        -0.34157

 Excited State   4:      Singlet-A      4.5619 eV  271.78 nm  f=0.0130  <S**2>=0.000
      67 -> 68         0.61829
      67 -> 69         0.30907
      67 -> 70        -0.13176

 Excited State   5:      Singlet-A      4.6090 eV  269.01 nm  f=0.0037  <S**2>=0.000
      67 -> 68        -0.27866
      67 -> 69         0.62500
      67 -> 70         0.16167

 Excited State   6:      Singlet-A      4.7558 eV  260.70 nm  f=0.0012  <S**2>=0.000
      65 -> 68         0.20839
      65 -> 70         0.48842
      66 -> 68         0.17283
      66 -> 70         0.39466

 The electronic state is 1-A.
 Alpha  occ. eigenvalues -- -101.56433 -19.17209 -19.14200 -14.46900 -10.29023
 Alpha  occ. eigenvalues --  -10.27117 -10.25225 -10.23490 -10.23197 -10.22736
 Alpha  occ. eigenvalues --  -10.22310 -10.22286 -10.22145 -10.22030 -10.20676
 Alpha  occ. eigenvalues --  -10.19712 -10.18666  -9.47943  -7.24350  -7.23378
 Alpha  occ. eigenvalues --   -7.23348  -1.11686  -1.04587  -0.91973  -0.90595
 Alpha  occ. eigenvalues --   -0.85783  -0.82113  -0.78540  -0.77773  -0.75475
 Alpha  occ. eigenvalues --   -0.70600  -0.70280  -0.68912  -0.64143  -0.61504
 Alpha  occ. eigenvalues --   -0.59176  -0.56814  -0.54166  -0.53178  -0.51370
 Alpha  occ. eigenvalues --   -0.49507  -0.48054  -0.47995  -0.46958  -0.46231
 Alpha  occ. eigenvalues --   -0.44984  -0.44443  -0.43531  -0.43064  -0.41698
 Alpha  occ. eigenvalues --   -0.41113  -0.40990  -0.39587  -0.39445  -0.38699
 Alpha  occ. eigenvalues --   -0.38099  -0.37124  -0.35931  -0.35845  -0.34835
 Alpha  occ. eigenvalues --   -0.33759  -0.32608  -0.30107  -0.28231  -0.26740
 Alpha  occ. eigenvalues --   -0.25833  -0.23095
 Alpha virt. eigenvalues --   -0.04081  -0.03995  -0.03375  -0.01339   0.00274
 Alpha virt. eigenvalues --    0.00481   0.00809   0.01376   0.02678   0.02828
 Alpha virt. eigenvalues --    0.03217   0.03269   0.04333   0.04905   0.05367

 Mulliken charges:
               1
     1  C   -0.654937
     2  C    0.218025
     3  N   -0.370404
     4  O   -0.032281
     5  C    0.253458
     6  O   -0.452713
     7  C   -0.163436
     8  C   -0.463091
     9  C   -0.416756
    10  C   -0.285919
    11  C    0.270151
    12  C   -0.148359
    13  C   -0.442647
    14  C    0.101926
    15  Cl   0.252393
    16  C   -0.110988
    17  C   -0.232485
    18  H    0.160452
    19  H    0.179687
    20  H    0.182487
    21  H    0.138449
    22  H    0.373273
    23  H    0.158494
    24  H    0.145263
    25  H    0.164544
    26  H    0.172109
    27  H    0.157472
    28  H    0.156908
    29  H    0.140503
    30  H    0.129543
    31  H    0.147422
    32  H    0.146725
    33  H    0.124731
 Sum of Mulliken charges =  -0.00000

 Dipole moment (field-independent basis, Debye):
    X=             -1.7953    Y=             -1.1602    Z=             -2.0176  Tot=              2.9394
 Quadrupole moment (field-independent basis, Debye-Ang):
   XX=           -133.5073   YY=           -110.6283   ZZ=           -105.2906
   XY=             -5.7578   XZ=             -3.4754   YZ=              3.6783

 Normal termination of Gaussian 16 at Thu Oct  2 12:42:29 2025.
