 Gaussian 16, Revision C.02,
 Gaussian 16:  ES64L-G16RevC.02  7-Dec-2021

 ----------------------------------------------------------
 # td=(50-50,nstates=3) b3lyp/6-31+g(d,p) geom=connectivity
 ----------------------------------------------------------

 -------------------
 Title Card Required
 -------------------
 Symbolic Z-matrix:
 Charge =  0 Multiplicity = 1

                         Standard orientation:
 ---------------------------------------------------------------------
 Center     Atomic      Atomic             Coordinates (Angstroms)
 Number     Number       Type             X           Y           Z
 ---------------------------------------------------------------------
      1          6           0        4.837504    0.570438   -0.000336
      2          7           0        3.739292   -0.382906   -0.000130
      3          6           0        3.117747   -0.746679    1.185744
      4          6           0        1.930291   -1.376913    1.238167
      5          6           0        1.096542   -1.662129    0.000251
      6          6           0       -0.223388   -0.887706    0.000201
      7          6           0       -1.436797   -1.529582    0.000121
      8          6           0       -2.696904   -0.833479   -0.000019
      9         17           0       -4.154122   -1.806495   -0.000137
     10          6           0       -2.790542    0.531495   -0.000064
     11          6           0       -1.547730    1.210272    0.000054
     12          6           0       -0.278707    0.554332    0.000137
     13          7           0        0.713419    1.433835    0.000037
     14          8           0        0.124760    2.671045    0.000016
     15          7           0       -1.312180    2.529682    0.000006
     16          8           0       -2.018328    3.535937   -0.000028
     17          6           0        1.930088   -1.377198   -1.237875
     18          6           0        3.117544   -0.746926   -1.185794
     19          1           0        5.460217    0.412113    0.884780
     20          1           0        5.460119    0.411927   -0.885498
     21          1           0        4.484003    1.610337   -0.000409
     22          1           0        3.679376   -0.519602    2.086686
     23          1           0        1.542173   -1.684943    2.203785
     24          1           0        0.797642   -2.722487    0.000416
     25          1           0       -1.462194   -2.614957    0.000155
     26          1           0       -3.731102    1.067768   -0.000149
     27          1           0        1.541801   -1.685427   -2.203360
     28          1           0        3.678990   -0.520012   -2.086895
 ---------------------------------------------------------------------

 SCF Done:  E(RB3LYP) =  -1238.04717751     A.U. after   19 cycles

 Excitation energies and oscillator strengths:

 Excited State   1:      Triplet-A      1.2856 eV  964.38 nm  f=0.0000  <S**2>=2.000
      67 -> 69         0.71952
      67 <- 69         0.22549
 This state for optimization and/or second-order correction.
 Total Energy, E(TD-HF/TD-DFT) =  -1237.99993102
 Copying the excited state density for this state as the 1-particle RhoCI density.

 Excited State   2:      Triplet-A      1.6903 eV  733.49 nm  f=0.0000  <S**2>=2.000
      68 -> 69         0.69980

 Excited State   3:      Singlet-A      1.7491 eV  708.85 nm  f=0.0001  <S**2>=0.000
      68 -> 69         0.70576

 Excited State   4:      Triplet-A      2.9744 eV  416.84 nm  f=0.0000  <S**2>=2.000
      68 -> 70         0.56738
      68 -> 71        -0.10377
      68 -> 75        -0.36837

 Excited State   5:      Singlet-A      3.2478 eV  381.75 nm  f=0.1303  <S**2>=0.000
      67 -> 69         0.69850

 Excited State   6:      Singlet-A      3.7806 eV  327.95 nm  f=0.0084  <S**2>=0.000
      68 -> 70         0.69919

 The electronic state is 1-A.
 Alpha  occ. eigenvalues -- -101.57501 -19.28934 -19.19669 -14.55396 -14.41912
 Alpha  occ. eigenvalues --  -14.38159 -10.28826 -10.27536 -10.26565 -10.24174
 Alpha  occ. eigenvalues --  -10.24119 -10.23533 -10.23525 -10.23200 -10.23200
 Alpha  occ. eigenvalues --  -10.22591 -10.19020 -10.19019  -9.48994  -7.25412
 Alpha  occ. eigenvalues --   -7.24432  -7.24388  -1.22730  -1.12706  -0.97673
 Alpha  occ. eigenvalues --   -0.93681  -0.89743  -0.89325  -0.84279  -0.81346
 Alpha  occ. eigenvalues --   -0.78160  -0.77179  -0.72922  -0.69575  -0.67257
 Alpha  occ. eigenvalues --   -0.65152  -0.63585  -0.60685  -0.56960  -0.55071
 Alpha  occ. eigenvalues --   -0.54667  -0.53150  -0.52061  -0.49864  -0.49415
 Alpha  occ. eigenvalues --   -0.49063  -0.46806  -0.45486  -0.44975  -0.44148
 Alpha  occ. eigenvalues --   -0.43987  -0.43169  -0.42568  -0.42146  -0.41274
 Alpha  occ. eigenvalues --   -0.40193  -0.37953  -0.37206  -0.36889  -0.35436
 Alpha  occ. eigenvalues --   -0.35104  -0.33612  -0.30396  -0.30384  -0.29597
 Alpha  occ. eigenvalues --   -0.27206  -0.23369  -0.19588
 Alpha virt. eigenvalues --   -0.10654  -0.03010  -0.02035  -0.00941  -0.00583
 Alpha virt. eigenvalues --    0.00137   0.00399   0.01141   0.01563   0.01937
 Alpha virt. eigenvalues --    0.02710   0.03549   0.03771   0.03860   0.04272

 Mulliken charges:
               1
     1  C   -0.186708
     2  N    0.006951
     3  C    0.047114
     4  C   -0.455750
     5  C    0.585071
     6  C    0.550958
     7  C   -0.281962
     8  C   -0.046007
     9  Cl   0.269978
    10  C    0.686619
    11  C   -0.609661
    12  C   -0.903850
    13  N   -0.509744
    14  O    0.451647
    15  N   -0.593051
    16  O    0.024434
    17  C   -0.455770
    18  C    0.047109
    19  H    0.142832
    20  H    0.142835
    21  H    0.167351
    22  H    0.122023
    23  H    0.121329
    24  H    0.118260
    25  H    0.143032
    26  H    0.171610
    27  H    0.121327
    28  H    0.122022
 Sum of Mulliken charges =  -0.00000

 Dipole moment (field-independent basis, Debye):
    X=              2.7483    Y=             -2.6764    Z=             -0.0000  Tot=              3.8362
 Quadrupole moment (field-independent basis, Debye-Ang):
   XX=           -100.2166   YY=           -125.9677   ZZ=           -108.2604
   XY=              6.8828   XZ=             -0.0010   YZ=             -0.0001

 Normal termination of Gaussian 16 at Thu Oct  2 12:41:27 2025.
