 Gaussian 16, Revision C.02,
 Gaussian 16:  ES64L-G16RevC.02  7-Dec-2021

 ----------------------------------------------------------
 # td=(50-50,nstates=3) b3lyp/6-31+g(d,p) geom=connectivity
 ----------------------------------------------------------

 -------------------
 Title Card Required
 -------------------
 Symbolic Z-matrix:
 Charge =  0 Multiplicity = 1

                         Standard orientation:
 ---------------------------------------------------------------------
 Center     Atomic      Atomic             Coordinates (Angstroms)
 Number     Number       Type             X           Y           Z
 ---------------------------------------------------------------------
      1          6           0        0.970722    4.819955    0.679820
      2          6           0        1.339013    3.442046    0.376255
      3          6           0        1.675317    2.300566    0.122721
      4          6           0        2.117536    0.995386   -0.173766
      5          7           0        3.371236    0.777405   -0.521054
      6          8           0        4.346314    1.586630   -0.616267
      7          6           0        3.594675   -0.652869   -0.916763
      8          8           0        4.873022   -1.042443   -0.548172
      9          6           0        2.442963   -1.413285   -0.224406
     10          6           0        2.081877   -2.658340   -1.052079
     11          6           0        2.855027   -1.813085    1.205184
     12          6           0        1.314709   -0.304022   -0.233487
     13          6           0        0.203883   -0.376299    0.855988
     14          7           0       -0.799228    0.679766    0.669358
     15          6           0       -2.019475    0.157867    0.328050
     16          6           0       -3.188565    0.840921   -0.045234
     17          6           0       -4.317478    0.066498   -0.294445
     18         17           0       -5.799029    0.883027   -0.765227
     19          6           0       -4.336159   -1.338692   -0.186739
     20          6           0       -3.168571   -1.997560    0.181194
     21          6           0       -2.012717   -1.249786    0.427070
     22          6           0       -0.670000   -1.670421    0.816423
     23          8           0       -0.280048   -2.794802    1.097985
     24          1           0        1.869310    5.440951    0.758931
     25          1           0        0.335595    5.245010   -0.105648
     26          1           0        0.427767    4.886867    1.629229
     27          1           0        3.476685   -0.668368   -2.013056
     28          1           0        5.440886   -0.259973   -0.683279
     29          1           0        1.293035   -3.237328   -0.570859
     30          1           0        1.750972   -2.384892   -2.061139
     31          1           0        2.963423   -3.300803   -1.151251
     32          1           0        2.038920   -2.353010    1.689226
     33          1           0        3.730879   -2.464168    1.166036
     34          1           0        3.124878   -0.943315    1.813552
     35          1           0        0.795583   -0.345980   -1.203912
     36          1           0        0.657360   -0.297745    1.849942
     37          1           0       -0.520553    1.622714    0.438613
     38          1           0       -3.223082    1.921014   -0.131032
     39          1           0       -5.250884   -1.881937   -0.390983
     40          1           0       -3.142183   -3.079061    0.273268
 ---------------------------------------------------------------------

 SCF Done:  E(RB3LYP) =  -1453.36801890     A.U. after   17 cycles

 Excitation energies and oscillator strengths:

 Excited State   1:      Triplet-A      1.9285 eV  642.90 nm  f=0.0000  <S**2>=2.000
      86 -> 89         0.60276
      87 -> 89        -0.39279
      86 <- 89         0.15682
 This state for optimization and/or second-order correction.
 Total Energy, E(TD-HF/TD-DFT) =  -1453.29714785
 Copying the excited state density for this state as the 1-particle RhoCI density.

 Excited State   2:      Triplet-A      2.6641 eV  465.39 nm  f=0.0000  <S**2>=2.000
      86 -> 88         0.33348
      87 -> 88         0.61054

 Excited State   3:      Triplet-A      3.2671 eV  379.49 nm  f=0.0000  <S**2>=2.000
      83 -> 88         0.10495
      85 -> 88         0.63561
      85 -> 96        -0.10815
      86 -> 88        -0.18307
      87 -> 88         0.12042

 Excited State   4:      Singlet-A      3.4430 eV  360.11 nm  f=0.0585  <S**2>=0.000
      86 -> 88         0.26158
      87 -> 88         0.63951

 Excited State   5:      Singlet-A      3.5672 eV  347.57 nm  f=0.0026  <S**2>=0.000
      85 -> 88        -0.31027
      86 -> 88         0.56524
      87 -> 88        -0.27497

 Excited State   6:      Singlet-A      3.7531 eV  330.36 nm  f=0.0046  <S**2>=0.000
      85 -> 88         0.60247
      86 -> 88         0.32671

 The electronic state is 1-A.
 Alpha  occ. eigenvalues -- -101.56942 -19.17743 -19.16040 -19.15781 -14.48615
 Alpha  occ. eigenvalues --  -14.38155 -10.29497 -10.29446 -10.28298 -10.27139
 Alpha  occ. eigenvalues --  -10.26798 -10.26138 -10.24508 -10.23503 -10.23170
 Alpha  occ. eigenvalues --  -10.23156 -10.22796 -10.22345 -10.21934 -10.21722
 Alpha  occ. eigenvalues --  -10.21176 -10.18573 -10.17998  -9.48453  -7.24858
 Alpha  occ. eigenvalues --   -7.23899  -7.23848  -1.13514  -1.05617  -1.05383
 Alpha  occ. eigenvalues --   -0.98769  -0.92601  -0.90723  -0.85134  -0.82838
 Alpha  occ. eigenvalues --   -0.81263  -0.79582  -0.77574  -0.76259  -0.74799
 Alpha  occ. eigenvalues --   -0.71021  -0.70029  -0.69403  -0.65226  -0.63051
 Alpha  occ. eigenvalues --   -0.61593  -0.59253  -0.57829  -0.55077  -0.54947
 Alpha  occ. eigenvalues --   -0.53705  -0.52923  -0.51367  -0.50239  -0.48892
 Alpha  occ. eigenvalues --   -0.47788  -0.47569  -0.46718  -0.46341  -0.46033
 Alpha  occ. eigenvalues --   -0.45750  -0.45558  -0.45372  -0.43928  -0.43434
 Alpha  occ. eigenvalues --   -0.42258  -0.41505  -0.40785  -0.40395  -0.39389
 Alpha  occ. eigenvalues --   -0.38584  -0.38367  -0.38055  -0.36863  -0.35850
 Alpha  occ. eigenvalues --   -0.35425  -0.34878  -0.33072  -0.32557  -0.31888
 Alpha  occ. eigenvalues --   -0.30585  -0.29897  -0.27718  -0.27321  -0.26813
 Alpha  occ. eigenvalues --   -0.23495  -0.23118
 Alpha virt. eigenvalues --   -0.08297  -0.07089  -0.02406  -0.01717  -0.00333
 Alpha virt. eigenvalues --   -0.00074   0.00497   0.00542   0.00949   0.01170
 Alpha virt. eigenvalues --    0.01810   0.02208   0.02838   0.03344   0.03586

 Mulliken charges:
               1
     1  C   -0.817756
     2  C   -0.092392
     3  C   -0.066220
     4  C   -0.257614
     5  N   -0.304068
     6  O   -0.024491
     7  C    0.373317
     8  O   -0.448288
     9  C   -0.218553
    10  C   -0.424672
    11  C   -0.449145
    12  C    0.939432
    13  C   -0.617519
    14  N   -0.130792
    15  C   -1.701440
    16  C   -0.117163
    17  C   -0.077804
    18  Cl   0.269001
    19  C   -0.169837
    20  C    0.136832
    21  C    1.083457
    22  C    0.407279
    23  O   -0.439247
    24  H    0.195919
    25  H    0.181314
    26  H    0.182449
    27  H    0.148115
    28  H    0.372201
    29  H    0.187872
    30  H    0.139196
    31  H    0.163010
    32  H    0.184500
    33  H    0.173709
    34  H    0.153434
    35  H    0.163825
    36  H    0.177954
    37  H    0.279501
    38  H    0.139455
    39  H    0.146931
    40  H    0.158301
 Sum of Mulliken charges =  -0.00000

 Dipole moment (field-independent basis, Debye):
    X=             -2.1982    Y=              2.7897    Z=             -0.4515  Tot=              3.5803
 Quadrupole moment (field-independent basis, Debye-Ang):
   XX=           -164.6505   YY=           -134.5963   ZZ=           -143.3805
   XY=             -1.5391   XZ=              0.0069   YZ=              8.0142

 Normal termination of Gaussian 16 at Tue Sep 30 12:34:43 2025.
