 Gaussian 16, Revision C.02,
 Gaussian 16:  ES64L-G16RevC.02  7-Dec-2021

 ----------------------------------------------------------
 # td=(50-50,nstates=3) b3lyp/6-31+g(d,p) geom=connectivity
 ----------------------------------------------------------

 -------------------
 Title Card Required
 -------------------
 Symbolic Z-matrix:
 Charge =  0 Multiplicity = 1

                         Standard orientation:
 ---------------------------------------------------------------------
 Center     Atomic      Atomic             Coordinates (Angstroms)
 Number     Number       Type             X           Y           Z
 ---------------------------------------------------------------------
      1          6           0        4.700499   -2.013287   -0.287095
      2          7           0        3.369375   -1.562996    0.109860
      3          6           0        2.262288   -2.471387   -0.199021
      4          6           0        1.054156   -2.144784    0.664073
      5          7           0        0.681255   -0.731526    0.549139
      6          6           0       -0.708092   -0.396940    0.693684
      7          8           0       -1.344793   -0.463706   -0.579318
      8          6           0       -2.612500    0.200768   -0.651597
      9          6           0       -3.615258   -0.445150    0.301371
     10         35           0       -5.473769   -0.050078   -0.182226
     11          6           0        1.652984    0.202105    0.308141
     12          6           0        1.596446    1.576528    0.222847
     13          6           0        0.474981    2.423735    0.336147
     14          7           0       -0.430887    3.157621    0.424713
     15          6           0        2.977425    2.130315   -0.030664
     16          6           0        3.834560    0.890280   -0.111729
     17          6           0        5.222586    0.985428   -0.354749
     18          7           0        6.364510    1.133794   -0.553109
     19          6           0        3.055074   -0.228263    0.085380
     20          1           0        5.465520   -1.450089    0.246889
     21          1           0        4.802428   -3.068081   -0.021768
     22          1           0        4.872902   -1.899654   -1.367042
     23          1           0        2.587760   -3.492176    0.017887
     24          1           0        1.993184   -2.419438   -1.266151
     25          1           0        1.271093   -2.395166    1.712547
     26          1           0        0.205753   -2.749023    0.332227
     27          1           0       -1.155276   -1.124262    1.384668
     28          1           0       -0.817387    0.603399    1.122118
     29          1           0       -2.936368    0.079924   -1.686753
     30          1           0       -2.497756    1.271474   -0.438627
     31          1           0       -3.503308   -0.107580    1.331660
     32          1           0       -3.531821   -1.531897    0.256821
     33          1           0        3.299214    2.802434    0.776480
     34          1           0        3.023665    2.708172   -0.963470
 ---------------------------------------------------------------------

 SCF Done:  E(RB3LYP) =  -3370.35378198     A.U. after   16 cycles

 Excitation energies and oscillator strengths:

 Excited State   1:      Triplet-A      2.1629 eV  573.22 nm  f=0.0000  <S**2>=2.000
      82 -> 83         0.69935
      82 <- 83         0.10764
 This state for optimization and/or second-order correction.
 Total Energy, E(TD-HF/TD-DFT) =  -3370.27429575
 Copying the excited state density for this state as the 1-particle RhoCI density.

 Excited State   2:      Triplet-A      2.8913 eV  428.82 nm  f=0.0000  <S**2>=2.000
      81 -> 83         0.68274
      82 -> 90        -0.12714

 Excited State   3:      Singlet-A      3.7166 eV  333.60 nm  f=0.1421  <S**2>=0.000
      82 -> 83         0.70391

 Excited State   4:      Singlet-A      4.1301 eV  300.20 nm  f=0.1837  <S**2>=0.000
      81 -> 83         0.68431
      82 -> 90         0.11656

 Excited State   5:      Triplet-A      4.6467 eV  266.82 nm  f=0.0000  <S**2>=2.000
      81 -> 83        -0.10891
      82 -> 84         0.47420
      82 -> 85         0.37795
      82 -> 87         0.15248
      82 -> 88         0.10557
      82 -> 90        -0.20059

 Excited State   6:      Singlet-A      4.7761 eV  259.59 nm  f=0.0453  <S**2>=0.000
      82 -> 84         0.63697
      82 -> 85         0.25260

 The electronic state is 1-A.
 Alpha  occ. eigenvalues -- -482.92723 -61.88779 -56.40401 -56.40024 -56.40009
 Alpha  occ. eigenvalues --  -19.18849 -14.40759 -14.40308 -14.34448 -14.34159
 Alpha  occ. eigenvalues --  -10.30195 -10.28436 -10.28004 -10.26752 -10.26547
 Alpha  occ. eigenvalues --  -10.26181 -10.25930 -10.24448 -10.24113 -10.23837
 Alpha  occ. eigenvalues --  -10.23783 -10.23654 -10.22930  -8.59338  -6.54556
 Alpha  occ. eigenvalues --   -6.53286  -6.53261  -2.66101  -2.65748  -2.65728
 Alpha  occ. eigenvalues --   -2.64716  -2.64715  -1.07383  -1.01741  -0.97469
 Alpha  occ. eigenvalues --   -0.91775  -0.91035  -0.88904  -0.83100  -0.80564
 Alpha  occ. eigenvalues --   -0.78301  -0.77677  -0.74300  -0.71222  -0.68896
 Alpha  occ. eigenvalues --   -0.68271  -0.65995  -0.63313  -0.58428  -0.57564
 Alpha  occ. eigenvalues --   -0.55188  -0.53974  -0.52967  -0.51480  -0.50060
 Alpha  occ. eigenvalues --   -0.48886  -0.47844  -0.47252  -0.47100  -0.45379
 Alpha  occ. eigenvalues --   -0.44631  -0.44051  -0.42617  -0.42533  -0.42240
 Alpha  occ. eigenvalues --   -0.41847  -0.40071  -0.39026  -0.38576  -0.37693
 Alpha  occ. eigenvalues --   -0.37151  -0.36747  -0.35730  -0.35282  -0.33872
 Alpha  occ. eigenvalues --   -0.32892  -0.32043  -0.30311  -0.28901  -0.28422
 Alpha  occ. eigenvalues --   -0.24555  -0.22585
 Alpha virt. eigenvalues --   -0.07975  -0.03198  -0.02099  -0.01006  -0.00559
 Alpha virt. eigenvalues --    0.00251   0.00598   0.00625   0.01239   0.01773
 Alpha virt. eigenvalues --    0.02336   0.02652   0.02775   0.03369   0.03770

 Mulliken charges:
               1
     1  C   -0.249271
     2  N   -0.102599
     3  C   -0.208590
     4  C   -0.188140
     5  N   -0.063185
     6  C   -0.137287
     7  O   -0.320204
     8  C   -0.001318
     9  C   -0.352312
    10  Br  -0.057711
    11  C   -0.529558
    12  C    1.474356
    13  C   -0.038465
    14  N   -0.587932
    15  C   -1.097160
    16  C    0.739548
    17  C    0.305630
    18  N   -0.609208
    19  C   -0.449994
    20  H    0.178214
    21  H    0.142485
    22  H    0.168544
    23  H    0.144511
    24  H    0.166557
    25  H    0.161984
    26  H    0.160527
    27  H    0.122435
    28  H    0.141737
    29  H    0.158749
    30  H    0.179120
    31  H    0.182569
    32  H    0.188870
    33  H    0.188201
    34  H    0.188895
 Sum of Mulliken charges =  -0.00000

 Dipole moment (field-independent basis, Debye):
    X=             -0.5524    Y=             -7.0794    Z=              1.5192  Tot=              7.2616
 Quadrupole moment (field-independent basis, Debye-Ang):
   XX=           -170.2238   YY=           -126.1396   ZZ=           -125.4140
   XY=            -10.9497   XZ=              2.0246   YZ=             -2.2415

 Normal termination of Gaussian 16 at Wed Aug 13 13:12:35 2025.
