 Gaussian 16, Revision C.02,
 Gaussian 16:  ES64L-G16RevC.02  7-Dec-2021

 ----------------------------------------------------------
 # td=(50-50,nstates=3) b3lyp/6-31+g(d,p) geom=connectivity
 ----------------------------------------------------------

 -------------------
 Title Card Required
 -------------------
 Symbolic Z-matrix:
 Charge =  0 Multiplicity = 1

                         Standard orientation:
 ---------------------------------------------------------------------
 Center     Atomic      Atomic             Coordinates (Angstroms)
 Number     Number       Type             X           Y           Z
 ---------------------------------------------------------------------
      1          6           0       -0.541891    3.155498    0.109119
      2          6           0       -1.404441    1.925516   -0.022335
      3          6           0       -2.796703    2.137648   -0.366790
      4          6           0       -3.701655    1.131116   -0.543915
      5          6           0       -3.234580   -0.204637   -0.354962
      6          7           0       -3.912554   -1.339155   -0.429506
      7          8           0       -3.018387   -2.328324   -0.129564
      8          7           0       -1.718467   -1.747024    0.152036
      9          8           0       -0.800454   -2.491217    0.479706
     10          6           0       -1.868473   -0.423049   -0.011632
     11          6           0       -0.925502    0.640499    0.150504
     12          6           0        0.488995    0.323678    0.438862
     13          7           0        1.089771    0.701329    1.543778
     14          8           0        2.386361    0.191701    1.396016
     15          6           0        2.417877   -0.439235    0.208192
     16          6           0        3.681982   -1.092160   -0.219582
     17         17           0        4.868759    0.117283   -0.876017
     18          7           0        1.286188   -0.393882   -0.429413
     19          1           0       -0.843453    3.738112    0.987938
     20          1           0        0.515501    2.918461    0.221101
     21          1           0       -0.666009    3.801800   -0.766765
     22          1           0       -3.120250    3.166400   -0.498057
     23          1           0       -4.736179    1.317366   -0.809213
     24          1           0        4.168151   -1.588834    0.619819
     25          1           0        3.464956   -1.802501   -1.014824
 ---------------------------------------------------------------------

 SCF Done:  E(RB3LYP) =  -1289.99991508     A.U. after   18 cycles

 Excitation energies and oscillator strengths:

 Excited State   1:      Triplet-A      1.3119 eV  945.07 nm  f=0.0000  <S**2>=2.000
      68 -> 69         0.71691
      68 -> 71        -0.11938
      68 <- 69         0.22289
 This state for optimization and/or second-order correction.
 Total Energy, E(TD-HF/TD-DFT) =  -1289.95170371
 Copying the excited state density for this state as the 1-particle RhoCI density.

 Excited State   2:      Triplet-A      3.2587 eV  380.47 nm  f=0.0000  <S**2>=2.000
      64 -> 69        -0.20988
      65 -> 69        -0.24365
      67 -> 69         0.36514
      68 -> 70         0.24934
      68 -> 71         0.38027

 Excited State   3:      Singlet-A      3.2718 eV  378.95 nm  f=0.1154  <S**2>=0.000
      68 -> 69         0.69554

 Excited State   4:      Triplet-A      3.5754 eV  346.77 nm  f=0.0000  <S**2>=2.000
      65 -> 69        -0.35790
      66 -> 69         0.43543
      67 -> 69        -0.29771
      68 -> 72        -0.26379

 Excited State   5:      Singlet-A      3.8795 eV  319.59 nm  f=0.0024  <S**2>=0.000
      68 -> 70         0.70002

 Excited State   6:      Singlet-A      4.0932 eV  302.90 nm  f=0.0009  <S**2>=0.000
      65 -> 69         0.27886
      66 -> 69         0.52588
      67 -> 69         0.35449

 The electronic state is 1-A.
 Alpha  occ. eigenvalues -- -101.56645 -19.29297 -19.28168 -19.20212 -14.56030
 Alpha  occ. eigenvalues --  -14.42490 -14.42475 -14.37743 -10.32912 -10.29542
 Alpha  occ. eigenvalues --  -10.29127 -10.28222 -10.27174 -10.26009 -10.25501
 Alpha  occ. eigenvalues --  -10.24364 -10.24096 -10.21343  -9.48171  -7.24629
 Alpha  occ. eigenvalues --   -7.23573  -7.23547  -1.23190  -1.19871  -1.13375
 Alpha  occ. eigenvalues --   -0.97616  -0.93835  -0.91839  -0.89673  -0.87465
 Alpha  occ. eigenvalues --   -0.86185  -0.80559  -0.76124  -0.74600  -0.69693
 Alpha  occ. eigenvalues --   -0.68229  -0.66183  -0.64205  -0.61476  -0.57202
 Alpha  occ. eigenvalues --   -0.55870  -0.55087  -0.53530  -0.53017  -0.51689
 Alpha  occ. eigenvalues --   -0.49329  -0.48609  -0.47544  -0.46325  -0.45614
 Alpha  occ. eigenvalues --   -0.45181  -0.44601  -0.43690  -0.41727  -0.41471
 Alpha  occ. eigenvalues --   -0.39855  -0.39743  -0.38361  -0.37208  -0.36024
 Alpha  occ. eigenvalues --   -0.33363  -0.33045  -0.32358  -0.32061  -0.31001
 Alpha  occ. eigenvalues --   -0.30801  -0.30702  -0.24096
 Alpha virt. eigenvalues --   -0.11219  -0.07562  -0.03433  -0.02797  -0.01333
 Alpha virt. eigenvalues --   -0.00723   0.00216   0.01021   0.01529   0.02131
 Alpha virt. eigenvalues --    0.02495   0.03634   0.04045   0.04328   0.04566

 Mulliken charges:
               1
     1  C   -0.331009
     2  C   -1.206765
     3  C   -0.256292
     4  C    0.110488
     5  C   -1.322680
     6  N   -0.238875
     7  O    0.411001
     8  N   -0.759472
     9  O   -0.002630
    10  C    0.904234
    11  C    1.142644
    12  C    0.898806
    13  N   -0.360606
    14  O    0.089971
    15  C    0.155473
    16  C   -0.401290
    17  Cl   0.070204
    18  N   -0.170551
    19  H    0.179486
    20  H    0.167352
    21  H    0.164227
    22  H    0.144201
    23  H    0.158499
    24  H    0.223703
    25  H    0.229879
 Sum of Mulliken charges =  -0.00000

 Dipole moment (field-independent basis, Debye):
    X=             -0.2441    Y=              3.5577    Z=             -0.7931  Tot=              3.6532
 Quadrupole moment (field-independent basis, Debye-Ang):
   XX=           -109.6212   YY=           -106.4491   ZZ=           -115.2607
   XY=            -19.5740   XZ=              1.3730   YZ=             -2.2077

 Normal termination of Gaussian 16 at Tue Sep 30 12:28:20 2025.
