 Gaussian 16, Revision C.02,
 Gaussian 16:  ES64L-G16RevC.02  7-Dec-2021

 ----------------------------------------------------------
 # td=(50-50,nstates=3) b3lyp/6-31+g(d,p) geom=connectivity
 ----------------------------------------------------------

 -------------------
 Title Card Required
 -------------------
 Symbolic Z-matrix:
 Charge =  0 Multiplicity = 1

                         Standard orientation:
 ---------------------------------------------------------------------
 Center     Atomic      Atomic             Coordinates (Angstroms)
 Number     Number       Type             X           Y           Z
 ---------------------------------------------------------------------
      1          6           0       -4.461593   -1.241787    1.270849
      2          7           0       -3.829233   -0.382994    0.276471
      3          6           0       -4.294471   -0.484357   -1.098639
      4          7           0       -2.543169   -0.104145    0.544614
      5          6           0       -1.736622    0.319243   -0.365495
      6          6           0       -0.337289    0.668760    0.064174
      7          6           0       -0.061026    2.106585   -0.188469
      8          7           0        0.119727    3.236336   -0.388660
      9          8           0        0.567527   -0.153567   -0.674894
     10          6           0        1.874594   -0.286072   -0.251339
     11          6           0        2.436154    0.399291    0.830360
     12          6           0        3.775339    0.163805    1.166750
     13          6           0        4.550041   -0.737274    0.438058
     14          6           0        3.976114   -1.412039   -0.646716
     15          6           0        2.646070   -1.190595   -0.993371
     16          1           0       -5.541644   -1.070695    1.266623
     17          1           0       -4.269179   -2.309216    1.081347
     18          1           0       -4.060420   -0.981421    2.250869
     19          1           0       -5.356149   -0.735406   -1.089813
     20          1           0       -4.174839    0.473838   -1.614937
     21          1           0       -3.747977   -1.258078   -1.662595
     22          1           0       -1.985085    0.462561   -1.416502
     23          1           0       -0.255015    0.478468    1.140939
     24          1           0        1.866948    1.120902    1.403989
     25          1           0        4.207898    0.701700    2.005294
     26          1           0        5.587566   -0.910490    0.705783
     27          1           0        4.567257   -2.115363   -1.226091
     28          1           0        2.185290   -1.706000   -1.829701
 ---------------------------------------------------------------------

 SCF Done:  E(RB3LYP) =  -666.436267045     A.U. after   15 cycles

 Excitation energies and oscillator strengths:

 Excited State   1:      Triplet-A      3.2600 eV  380.32 nm  f=0.0000  <S**2>=2.000
      53 -> 55         0.44247
      54 -> 55         0.49523
 This state for optimization and/or second-order correction.
 Total Energy, E(TD-HF/TD-DFT) =  -666.316465050
 Copying the excited state density for this state as the 1-particle RhoCI density.

 Excited State   2:      Triplet-A      3.7149 eV  333.75 nm  f=0.0000  <S**2>=2.000
      52 -> 56         0.41965
      53 -> 56         0.14803
      53 -> 57        -0.32873
      54 -> 56        -0.15360
      54 -> 57         0.35040

 Excited State   3:      Triplet-A      4.2619 eV  290.91 nm  f=0.0000  <S**2>=2.000
      52 -> 57         0.12794
      53 -> 56        -0.42171
      53 -> 57        -0.15195
      54 -> 56         0.47510
      54 -> 57         0.16877

 Excited State   4:      Singlet-A      4.7821 eV  259.27 nm  f=0.0204  <S**2>=0.000
      53 -> 55        -0.41946
      54 -> 55         0.56010

 Excited State   5:      Singlet-A      5.0848 eV  243.83 nm  f=0.0258  <S**2>=0.000
      52 -> 57        -0.29512
      53 -> 56        -0.34304
      54 -> 56         0.51448

 Excited State   6:      Singlet-A      5.1328 eV  241.55 nm  f=0.4001  <S**2>=0.000
      53 -> 55         0.52137
      53 -> 58         0.11705
      54 -> 55         0.39188
      54 -> 58         0.15946

 The electronic state is 1-A.
 Alpha  occ. eigenvalues --  -19.20376 -14.40596 -14.39498 -14.35219 -10.30399
 Alpha  occ. eigenvalues --  -10.26358 -10.24006 -10.23903 -10.23899 -10.23211
 Alpha  occ. eigenvalues --  -10.20326 -10.20258 -10.20207 -10.19792 -10.19531
 Alpha  occ. eigenvalues --   -1.08791  -1.03879  -0.91717  -0.87676  -0.85982
 Alpha  occ. eigenvalues --   -0.79304  -0.75749  -0.75007  -0.73634  -0.68511
 Alpha  occ. eigenvalues --   -0.62324  -0.61822  -0.58586  -0.56186  -0.55921
 Alpha  occ. eigenvalues --   -0.52326  -0.50919  -0.49623  -0.49302  -0.47745
 Alpha  occ. eigenvalues --   -0.45510  -0.43858  -0.43025  -0.42880  -0.42324
 Alpha  occ. eigenvalues --   -0.40758  -0.40389  -0.38956  -0.38078  -0.37215
 Alpha  occ. eigenvalues --   -0.36928  -0.35456  -0.34571  -0.33701  -0.33564
 Alpha  occ. eigenvalues --   -0.29950  -0.26249  -0.23920  -0.23465
 Alpha virt. eigenvalues --   -0.03526  -0.02046  -0.00790  -0.00624   0.00462
 Alpha virt. eigenvalues --    0.00782   0.01350   0.01866   0.02515   0.03054
 Alpha virt. eigenvalues --    0.03194   0.03793   0.04006   0.04279   0.04751

 Mulliken charges:
               1
     1  C   -0.329938
     2  N    0.132928
     3  C   -0.303074
     4  N   -0.133915
     5  C    0.068522
     6  C   -0.421407
     7  C    0.348949
     8  N   -0.479042
     9  O   -0.223122
    10  C   -0.341811
    11  C    0.956954
    12  C   -0.669069
    13  C   -0.085281
    14  C   -0.251272
    15  C   -0.151218
    16  H    0.148762
    17  H    0.144342
    18  H    0.170007
    19  H    0.154617
    20  H    0.156481
    21  H    0.158010
    22  H    0.134528
    23  H    0.186360
    24  H    0.117692
    25  H    0.129509
    26  H    0.123456
    27  H    0.127188
    28  H    0.130848
 Sum of Mulliken charges =  -0.00000

 Dipole moment (field-independent basis, Debye):
    X=             -3.0885    Y=             -3.8704    Z=              0.2360  Tot=              4.9572
 Quadrupole moment (field-independent basis, Debye-Ang):
   XX=            -66.4943   YY=           -103.9410   ZZ=            -86.4192
   XY=              2.0943   XZ=              4.5805   YZ=              4.5962

 Normal termination of Gaussian 16 at Wed Aug 13 13:04:43 2025.
