 Gaussian 16, Revision C.02,
 Gaussian 16:  ES64L-G16RevC.02  7-Dec-2021

 ----------------------------------------------------------
 # td=(50-50,nstates=3) b3lyp/6-31+g(d,p) geom=connectivity
 ----------------------------------------------------------

 -------------------
 Title Card Required
 -------------------
 Symbolic Z-matrix:
 Charge =  0 Multiplicity = 1

                         Standard orientation:
 ---------------------------------------------------------------------
 Center     Atomic      Atomic             Coordinates (Angstroms)
 Number     Number       Type             X           Y           Z
 ---------------------------------------------------------------------
      1          6           0        0.483153    4.960593    0.000070
      2          6           0        1.435215    3.778592    0.000085
      3          8           0        0.660805    2.573992    0.000020
      4          6           0        1.448391    1.407094   -0.000043
      5          6           0        0.551864    0.187023   -0.000036
      6          6           0       -0.800070    0.367263   -0.000032
      7          6           0       -1.736715   -0.728528   -0.000008
      8          6           0       -3.108450   -0.500886   -0.000012
      9          6           0       -4.048227   -1.576030    0.000017
     10          7           0       -4.808227   -2.458925    0.000041
     11          6           0       -3.660008    0.815988   -0.000047
     12          7           0       -4.113730    1.888813   -0.000074
     13          6           0       -1.203445   -2.070345    0.000027
     14          6           0        0.135091   -2.271593    0.000025
     15          6           0        1.090864   -1.175220   -0.000025
     16          6           0        2.445138   -1.507254   -0.000028
     17          6           0        3.542291   -0.593854   -0.000066
     18          7           0        4.482411    0.094468   -0.000096
     19          6           0        2.866506   -2.876381    0.000037
     20          7           0        3.223549   -3.985058    0.000088
     21          1           0        1.051589    5.896248    0.000132
     22          1           0       -0.156118    4.944712   -0.887575
     23          1           0       -0.156213    4.944655    0.887645
     24          1           0        2.083780    3.794547    0.889229
     25          1           0        2.083859    3.794592   -0.889001
     26          1           0        2.105342    1.389006   -0.883943
     27          1           0        2.105420    1.388960    0.883797
     28          1           0       -1.178970    1.382017   -0.000043
     29          1           0       -1.883266   -2.915634    0.000057
     30          1           0        0.520535   -3.284893    0.000054
 ---------------------------------------------------------------------

 SCF Done:  E(RB3LYP) =  -871.767221476     A.U. after   17 cycles

 Excitation energies and oscillator strengths:

 Excited State   1:      Triplet-A      0.6527 eV 1899.68 nm  f=0.0000  <S**2>=2.000
      68 -> 69         0.78660
      68 <- 69         0.36351
 This state for optimization and/or second-order correction.
 Total Energy, E(TD-HF/TD-DFT) =  -871.743236687
 Copying the excited state density for this state as the 1-particle RhoCI density.

 Excited State   2:      Triplet-A      2.3675 eV  523.69 nm  f=0.0000  <S**2>=2.000
      66 -> 69        -0.45292
      67 -> 69         0.52699

 Excited State   3:      Singlet-A      2.5486 eV  486.49 nm  f=0.0209  <S**2>=0.000
      67 -> 69         0.69613
      68 -> 69        -0.11202

 Excited State   4:      Triplet-A      2.6053 eV  475.90 nm  f=0.0000  <S**2>=2.000
      66 -> 69         0.51911
      67 -> 69         0.45489

 Excited State   5:      Singlet-A      2.9029 eV  427.11 nm  f=0.8125  <S**2>=0.000
      66 -> 69         0.24982
      67 -> 69         0.12080
      68 -> 69         0.66258
      68 <- 69        -0.15782

 Excited State   6:      Singlet-A      3.1077 eV  398.96 nm  f=0.1873  <S**2>=0.000
      66 -> 69         0.65799
      68 -> 69        -0.26103

 The electronic state is 1-A.
 Alpha  occ. eigenvalues --  -19.19398 -14.39179 -14.38875 -14.38790 -14.38673
 Alpha  occ. eigenvalues --  -10.32052 -10.31687 -10.30229 -10.29340 -10.28417
 Alpha  occ. eigenvalues --  -10.28400 -10.28058 -10.27899 -10.27770 -10.27543
 Alpha  occ. eigenvalues --  -10.26562 -10.26443 -10.26224 -10.25553 -10.19901
 Alpha  occ. eigenvalues --   -1.07644  -0.96878  -0.96308  -0.95014  -0.94635
 Alpha  occ. eigenvalues --   -0.93557  -0.89357  -0.84845  -0.83727  -0.78666
 Alpha  occ. eigenvalues --   -0.77138  -0.72854  -0.68931  -0.66933  -0.64453
 Alpha  occ. eigenvalues --   -0.63288  -0.59986  -0.59186  -0.57221  -0.53527
 Alpha  occ. eigenvalues --   -0.52492  -0.50178  -0.49552  -0.49086  -0.47907
 Alpha  occ. eigenvalues --   -0.45934  -0.45832  -0.45211  -0.42066  -0.41505
 Alpha  occ. eigenvalues --   -0.41198  -0.41001  -0.40966  -0.40685  -0.40441
 Alpha  occ. eigenvalues --   -0.39705  -0.38697  -0.38560  -0.38501  -0.38250
 Alpha  occ. eigenvalues --   -0.38123  -0.37430  -0.37133  -0.35492  -0.34855
 Alpha  occ. eigenvalues --   -0.32338  -0.29777  -0.27363
 Alpha virt. eigenvalues --   -0.18171  -0.07207  -0.06600  -0.05049  -0.03975
 Alpha virt. eigenvalues --   -0.01973  -0.00646  -0.00321  -0.00235   0.00347
 Alpha virt. eigenvalues --    0.00834   0.01084   0.01437   0.01849   0.02076

 Mulliken charges:
               1
     1  C   -0.645275
     2  C    0.288302
     3  O   -0.318621
     4  C   -0.273231
     5  C    0.387996
     6  C   -0.275077
     7  C    0.890476
     8  C    0.748513
     9  C   -0.222276
    10  N   -0.459719
    11  C   -0.470852
    12  N   -0.463724
    13  C   -0.369845
    14  C   -0.275364
    15  C    0.890658
    16  C    0.682740
    17  C   -0.336818
    18  N   -0.477198
    19  C   -0.436457
    20  N   -0.445483
    21  H    0.150789
    22  H    0.164563
    23  H    0.164564
    24  H    0.126695
    25  H    0.126693
    26  H    0.157860
    27  H    0.157854
    28  H    0.189663
    29  H    0.172053
    30  H    0.170521
 Sum of Mulliken charges =  -0.00000

 Dipole moment (field-independent basis, Debye):
    X=              1.4446    Y=              2.2442    Z=              0.0000  Tot=              2.6690
 Quadrupole moment (field-independent basis, Debye-Ang):
   XX=           -163.0525   YY=           -126.4167   ZZ=           -115.1032
   XY=             11.4864   XZ=              0.0000   YZ=              0.0009

 Normal termination of Gaussian 16 at Wed Aug 13 13:06:11 2025.
