 Gaussian 16, Revision C.02,
 Gaussian 16:  ES64L-G16RevC.02  7-Dec-2021

 ----------------------------------------------------------
 # td=(50-50,nstates=3) b3lyp/6-31+g(d,p) geom=connectivity
 ----------------------------------------------------------

 -------------------
 Title Card Required
 -------------------
 Symbolic Z-matrix:
 Charge =  0 Multiplicity = 1

                         Standard orientation:
 ---------------------------------------------------------------------
 Center     Atomic      Atomic             Coordinates (Angstroms)
 Number     Number       Type             X           Y           Z
 ---------------------------------------------------------------------
      1          6           0        3.785539   -1.898101    0.254089
      2          6           0        2.708518   -0.966245   -0.069828
      3          6           0        1.816599   -0.191601   -0.331816
      4          6           0        0.722491    0.737966   -0.659736
      5          6           0        0.960740    2.062029   -0.040420
      6          7           0        1.140743    3.104774    0.437096
      7          6           0       -0.661553    0.187070   -0.279823
      8          6           0       -1.027645    0.034896    1.062707
      9          6           0       -2.279875   -0.484696    1.391912
     10          6           0       -3.174598   -0.858150    0.383427
     11          6           0       -2.811383   -0.707313   -0.955969
     12          6           0       -1.557345   -0.184125   -1.286207
     13          1           0        4.515031   -1.431819    0.925064
     14          1           0        3.393987   -2.792839    0.750041
     15          1           0        4.314934   -2.217238   -0.650101
     16          1           0        0.725740    0.908410   -1.745219
     17          1           0       -0.336118    0.325581    1.848480
     18          1           0       -2.558453   -0.595750    2.435677
     19          1           0       -4.149291   -1.261238    0.641956
     20          1           0       -3.500949   -0.992146   -1.745131
     21          1           0       -1.279010   -0.066748   -2.330474
 ---------------------------------------------------------------------

 SCF Done:  E(RB3LYP) =  -479.289190823     A.U. after   15 cycles

 Excitation energies and oscillator strengths:

 Excited State   1:      Triplet-A      3.7115 eV  334.06 nm  f=0.0000  <S**2>=2.000
      38 -> 42        -0.20999
      39 -> 43         0.11311
      40 -> 43        -0.43653
      41 -> 42         0.48402
 This state for optimization and/or second-order correction.
 Total Energy, E(TD-HF/TD-DFT) =  -479.152796265
 Copying the excited state density for this state as the 1-particle RhoCI density.

 Excited State   2:      Triplet-A      4.6049 eV  269.25 nm  f=0.0000  <S**2>=2.000
      38 -> 42         0.10435
      38 -> 43        -0.12508
      40 -> 42        -0.39645
      40 -> 43        -0.24961
      41 -> 42        -0.23216
      41 -> 43         0.42230

 Excited State   3:      Triplet-A      4.6250 eV  268.07 nm  f=0.0000  <S**2>=2.000
      38 -> 43        -0.12244
      40 -> 42        -0.26044
      40 -> 43         0.45097
      41 -> 42         0.36723
      41 -> 43         0.21640

 Excited State   4:      Singlet-A      5.2669 eV  235.40 nm  f=0.0007  <S**2>=0.000
      38 -> 43        -0.12090
      40 -> 42         0.47297
      41 -> 43         0.49459

 Excited State   5:      Singlet-A      5.7108 eV  217.11 nm  f=0.0410  <S**2>=0.000
      38 -> 42         0.22512
      39 -> 42        -0.12870
      40 -> 43        -0.23093
      41 -> 42         0.60225

 Excited State   6:      Singlet-A      5.9008 eV  210.12 nm  f=0.0060  <S**2>=0.000
      39 -> 42         0.61789
      40 -> 42         0.20453
      40 -> 43        -0.13212

 The electronic state is 1-A.
 Alpha  occ. eigenvalues --  -14.34731 -10.27781 -10.24103 -10.22865 -10.22122
 Alpha  occ. eigenvalues --  -10.21346 -10.21109 -10.21060 -10.21013 -10.21011
 Alpha  occ. eigenvalues --  -10.20967 -10.20414  -0.91781  -0.88168  -0.83393
 Alpha  occ. eigenvalues --   -0.78956  -0.76490  -0.74760  -0.70240  -0.62785
 Alpha  occ. eigenvalues --   -0.61522  -0.55347  -0.53989  -0.51194  -0.48525
 Alpha  occ. eigenvalues --   -0.47096  -0.45249  -0.44744  -0.44249  -0.44116
 Alpha  occ. eigenvalues --   -0.43653  -0.38439  -0.37595  -0.37038  -0.36318
 Alpha  occ. eigenvalues --   -0.33998  -0.33896  -0.28332  -0.27954  -0.27052
 Alpha  occ. eigenvalues --   -0.26353
 Alpha virt. eigenvalues --   -0.03334  -0.02970  -0.01107   0.00290   0.00667
 Alpha virt. eigenvalues --    0.01085   0.01957   0.02149   0.03434   0.03531
 Alpha virt. eigenvalues --    0.04039   0.04182   0.04936   0.05697   0.05891

 Mulliken charges:
               1
     1  C   -0.946561
     2  C    0.373386
     3  C    0.156120
     4  C    0.405533
     5  C    0.041602
     6  N   -0.452210
     7  C   -0.224459
     8  C   -0.113219
     9  C   -0.090214
    10  C   -0.107177
    11  C   -0.370254
    12  C   -0.042172
    13  H    0.182635
    14  H    0.179968
    15  H    0.178628
    16  H    0.186698
    17  H    0.136170
    18  H    0.131840
    19  H    0.128947
    20  H    0.130216
    21  H    0.114523
 Sum of Mulliken charges =  -0.00000

 Dipole moment (field-independent basis, Debye):
    X=             -0.5035    Y=             -4.2531    Z=             -1.0919  Tot=              4.4197
 Quadrupole moment (field-independent basis, Debye-Ang):
   XX=            -60.1130   YY=            -84.2108   ZZ=            -64.6131
   XY=             -6.4641   XZ=             -0.3006   YZ=             -4.4230

 Normal termination of Gaussian 16 at Wed Aug 13 13:03:26 2025.
