 Gaussian 16, Revision C.02,
 Gaussian 16:  ES64L-G16RevC.02  7-Dec-2021

 ----------------------------------------------------------
 # td=(50-50,nstates=3) b3lyp/6-31+g(d,p) geom=connectivity
 ----------------------------------------------------------

 -------------------
 Title Card Required
 -------------------
 Symbolic Z-matrix:
 Charge =  0 Multiplicity = 1

                         Standard orientation:
 ---------------------------------------------------------------------
 Center     Atomic      Atomic             Coordinates (Angstroms)
 Number     Number       Type             X           Y           Z
 ---------------------------------------------------------------------
      1         17           0        4.967990   -1.678022   -0.312447
      2          6           0        3.890447   -0.309864   -0.057123
      3          6           0        4.434223    0.954336    0.169301
      4          6           0        3.561534    2.028200    0.359236
      5          6           0        2.179826    1.839600    0.323503
      6          6           0        1.635780    0.564088    0.093303
      7          6           0        0.165106    0.353872    0.055895
      8          6           0       -0.416924   -0.786077    0.635303
      9          6           0       -1.796280   -0.989138    0.604839
     10          6           0       -2.610959   -0.037044   -0.006345
     11         35           0       -4.498578   -0.296321   -0.037424
     12          6           0       -2.064253    1.105850   -0.588432
     13          6           0       -0.682425    1.291421   -0.557989
     14          6           0        2.513501   -0.516190   -0.099910
     15          1           0        5.509283    1.091992    0.197000
     16          1           0        3.966754    3.018142    0.546730
     17          1           0        1.518209    2.681381    0.501598
     18          1           0        0.211099   -1.515060    1.138377
     19          1           0       -2.231570   -1.870083    1.063314
     20          1           0       -2.705578    1.835946   -1.069542
     21          1           0       -0.258145    2.168492   -1.037067
     22          1           0        2.126867   -1.507531   -0.308453
 ---------------------------------------------------------------------

 SCF Done:  E(RB3LYP) =  -3494.06016059     A.U. after   16 cycles

 Excitation energies and oscillator strengths:

 Excited State   1:      Triplet-A      3.1956 eV  387.98 nm  f=0.0000  <S**2>=2.000
      63 -> 71         0.13656
      64 -> 68         0.16875
      64 -> 69         0.10408
      65 -> 68        -0.10221
      65 -> 69         0.15608
      66 -> 67         0.61008
 This state for optimization and/or second-order correction.
 Total Energy, E(TD-HF/TD-DFT) =  -3493.94272461
 Copying the excited state density for this state as the 1-particle RhoCI density.

 Excited State   2:      Triplet-A      3.7797 eV  328.02 nm  f=0.0000  <S**2>=2.000
      63 -> 67        -0.28254
      64 -> 68        -0.24122
      64 -> 69        -0.14672
      65 -> 67         0.16604
      65 -> 68        -0.21428
      65 -> 69         0.33398
      66 -> 71        -0.29660

 Excited State   3:      Triplet-A      4.2079 eV  294.64 nm  f=0.0000  <S**2>=2.000
      63 -> 69         0.10496
      64 -> 67         0.20442
      65 -> 67        -0.16813
      65 -> 68        -0.10519
      66 -> 68         0.58720
      66 -> 69         0.18814

 Excited State   4:      Singlet-A      4.6168 eV  268.55 nm  f=0.4539  <S**2>=0.000
      65 -> 67         0.17119
      66 -> 67         0.64831
      66 -> 68         0.12324
      66 -> 69        -0.13010

 Excited State   5:      Singlet-A      4.7342 eV  261.89 nm  f=0.1038  <S**2>=0.000
      64 -> 67        -0.16571
      65 -> 67         0.39527
      66 -> 67        -0.23851
      66 -> 68         0.45857
      66 -> 69        -0.16236

 Excited State   6:      Singlet-A      4.7855 eV  259.08 nm  f=0.0218  <S**2>=0.000
      64 -> 67        -0.31838
      65 -> 67        -0.27991
      66 -> 68         0.33849
      66 -> 69         0.42092

 The electronic state is 1-A.
 Alpha  occ. eigenvalues -- -482.93810-101.56061 -61.89718 -56.41295 -56.40924
 Alpha  occ. eigenvalues --  -56.40884 -10.26788 -10.26196 -10.22806 -10.22552
 Alpha  occ. eigenvalues --  -10.21952 -10.21940 -10.21787 -10.21762 -10.21762
 Alpha  occ. eigenvalues --  -10.21744 -10.21731 -10.21326  -9.47570  -8.60102
 Alpha  occ. eigenvalues --   -7.23976  -7.23006  -7.22977  -6.55283  -6.54026
 Alpha  occ. eigenvalues --   -6.53997  -2.66834  -2.66474  -2.66453  -2.65449
 Alpha  occ. eigenvalues --   -2.65449  -0.90641  -0.89075  -0.85371  -0.82062
 Alpha  occ. eigenvalues --   -0.78010  -0.77418  -0.75137  -0.72691  -0.64433
 Alpha  occ. eigenvalues --   -0.63953  -0.61491  -0.59454  -0.54533  -0.51227
 Alpha  occ. eigenvalues --   -0.49662  -0.48389  -0.47035  -0.46409  -0.44894
 Alpha  occ. eigenvalues --   -0.44195  -0.43776  -0.41081  -0.39949  -0.38998
 Alpha  occ. eigenvalues --   -0.38281  -0.36696  -0.36485  -0.34807  -0.32621
 Alpha  occ. eigenvalues --   -0.32232  -0.29905  -0.28349  -0.27877  -0.26280
 Alpha  occ. eigenvalues --   -0.24230
 Alpha virt. eigenvalues --   -0.05766  -0.03693  -0.03357  -0.01817  -0.00801
 Alpha virt. eigenvalues --   -0.00447   0.00284   0.01051   0.01283   0.02549
 Alpha virt. eigenvalues --    0.02854   0.03985   0.04253   0.04705   0.04862

 Mulliken charges:
               1
     1  Cl   0.231191
     2  C   -0.076895
     3  C   -0.338713
     4  C   -0.260963
     5  C   -0.025104
     6  C    0.227023
     7  C    0.128934
     8  C    0.122607
     9  C   -0.559102
    10  C    0.018733
    11  Br  -0.005008
    12  C   -0.523584
    13  C    0.143448
    14  C   -0.178827
    15  H    0.145576
    16  H    0.134907
    17  H    0.124976
    18  H    0.130569
    19  H    0.146318
    20  H    0.145732
    21  H    0.128955
    22  H    0.139227
 Sum of Mulliken charges =  -0.00000

 Dipole moment (field-independent basis, Debye):
    X=              0.5376    Y=              1.6548    Z=              0.3041  Tot=              1.7663
 Quadrupole moment (field-independent basis, Debye-Ang):
   XX=           -108.7907   YY=            -93.9558   ZZ=           -104.3960
   XY=              6.5156   XZ=              1.8220   YZ=             -2.5627

 Normal termination of Gaussian 16 at Tue Sep 30 12:16:37 2025.
