 Gaussian 16, Revision C.02,
 Gaussian 16:  ES64L-G16RevC.02  7-Dec-2021

 ----------------------------------------------------------
 # td=(50-50,nstates=3) b3lyp/6-31+g(d,p) geom=connectivity
 ----------------------------------------------------------

 -------------------
 Title Card Required
 -------------------
 Symbolic Z-matrix:
 Charge =  0 Multiplicity = 1

                         Standard orientation:
 ---------------------------------------------------------------------
 Center     Atomic      Atomic             Coordinates (Angstroms)
 Number     Number       Type             X           Y           Z
 ---------------------------------------------------------------------
      1          6           0        3.288655    1.125770   -1.017358
      2          6           0        2.817308    0.091343   -0.292094
      3          6           0        3.734789   -0.758889    0.424526
      4          7           0        4.481555   -1.427326    1.013505
      5          6           0        1.393460   -0.265870   -0.204626
      6          6           0        0.263219    0.495035   -0.040840
      7          6           0        0.277928    1.995374    0.192792
      8          6           0       -0.291525    2.807771   -0.989121
      9          6           0       -0.343519    2.393923    1.548170
     10          6           0       -0.832170   -0.457859   -0.045349
     11          6           0       -2.202746   -0.354092    0.008937
     12          6           0       -3.071297   -1.496630   -0.002398
     13          7           0       -3.872545   -2.340818   -0.001731
     14          6           0       -2.926174    0.878536    0.055007
     15          7           0       -3.573176    1.846043    0.079448
     16          6           0       -0.202180   -1.822838   -0.173714
     17          8           0       -0.694851   -2.912867   -0.207672
     18          8           0        1.164881   -1.623903   -0.274475
     19          1           0        2.625931    1.749901   -1.605036
     20          1           0        4.350497    1.342891   -1.047315
     21          1           0        1.337818    2.258146    0.267805
     22          1           0       -0.133403    3.876162   -0.808801
     23          1           0        0.207452    2.546416   -1.928874
     24          1           0       -1.363813    2.654416   -1.123080
     25          1           0       -0.166186    3.459643    1.725829
     26          1           0        0.118431    1.835874    2.368914
     27          1           0       -1.422295    2.235976    1.585590
 ---------------------------------------------------------------------

 SCF Done:  E(RB3LYP) =  -815.436084035     A.U. after   17 cycles

 Excitation energies and oscillator strengths:

 Excited State   1:      Triplet-A      1.3388 eV  926.07 nm  f=0.0000  <S**2>=2.000
      62 -> 63         0.71071
      62 <- 63         0.16897
 This state for optimization and/or second-order correction.
 Total Energy, E(TD-HF/TD-DFT) =  -815.386883282
 Copying the excited state density for this state as the 1-particle RhoCI density.

 Excited State   2:      Triplet-A      2.8692 eV  432.12 nm  f=0.0000  <S**2>=2.000
      59 -> 63         0.14213
      60 -> 63         0.13361
      60 -> 64        -0.21748
      61 -> 63         0.45464
      61 -> 64        -0.21163
      62 -> 64        -0.37988

 Excited State   3:      Singlet-A      2.9137 eV  425.53 nm  f=0.3029  <S**2>=0.000
      59 -> 63         0.12575
      62 -> 63         0.69285

 Excited State   4:      Triplet-A      3.0947 eV  400.63 nm  f=0.0000  <S**2>=2.000
      60 -> 63         0.51934
      61 -> 63        -0.39154
      61 -> 64        -0.15745
      62 -> 64        -0.17595

 Excited State   5:      Singlet-A      3.3923 eV  365.49 nm  f=0.0050  <S**2>=0.000
      60 -> 63        -0.43131
      61 -> 63         0.54409

 Excited State   6:      Singlet-A      3.9645 eV  312.73 nm  f=0.0065  <S**2>=0.000
      60 -> 63         0.47430
      61 -> 63         0.35371
      62 -> 64         0.37603

 The electronic state is 1-A.
 Alpha  occ. eigenvalues --  -19.26693 -19.21034 -14.39178 -14.38048 -14.37904
 Alpha  occ. eigenvalues --  -10.38117 -10.33571 -10.32378 -10.30416 -10.30137
 Alpha  occ. eigenvalues --  -10.28375 -10.27567 -10.27146 -10.27107 -10.26974
 Alpha  occ. eigenvalues --  -10.24856 -10.21301 -10.20984  -1.18225  -1.10178
 Alpha  occ. eigenvalues --   -0.96398  -0.94794  -0.94223  -0.91096  -0.88779
 Alpha  occ. eigenvalues --   -0.85138  -0.80916  -0.77249  -0.72184  -0.70935
 Alpha  occ. eigenvalues --   -0.67121  -0.65241  -0.63827  -0.60946  -0.57780
 Alpha  occ. eigenvalues --   -0.54133  -0.53005  -0.52419  -0.50904  -0.48666
 Alpha  occ. eigenvalues --   -0.48100  -0.46565  -0.45379  -0.45237  -0.44767
 Alpha  occ. eigenvalues --   -0.43119  -0.41734  -0.41278  -0.40534  -0.40288
 Alpha  occ. eigenvalues --   -0.39817  -0.39294  -0.38725  -0.38531  -0.37931
 Alpha  occ. eigenvalues --   -0.37805  -0.37249  -0.35975  -0.35276  -0.33709
 Alpha  occ. eigenvalues --   -0.32924  -0.27968
 Alpha virt. eigenvalues --   -0.16538  -0.10379  -0.04509  -0.03426  -0.02554
 Alpha virt. eigenvalues --   -0.01100  -0.00430  -0.00352   0.00052   0.00254
 Alpha virt. eigenvalues --    0.00929   0.01482   0.02164   0.02681   0.02843

 Mulliken charges:
               1
     1  C   -0.286123
     2  C   -0.013030
     3  C   -0.004212
     4  N   -0.478090
     5  C   -0.071890
     6  C   -0.327237
     7  C    0.275143
     8  C   -0.541019
     9  C   -0.648052
    10  C    0.875821
    11  C    0.798731
    12  C   -0.276570
    13  N   -0.462368
    14  C   -0.152338
    15  N   -0.418635
    16  C    1.011957
    17  O   -0.429126
    18  O   -0.259871
    19  H    0.170441
    20  H    0.181199
    21  H    0.120586
    22  H    0.155946
    23  H    0.137440
    24  H    0.171060
    25  H    0.155085
    26  H    0.151881
    27  H    0.163271
 Sum of Mulliken charges =  -0.00000

 Dipole moment (field-independent basis, Debye):
    X=              3.9603    Y=              6.4194    Z=             -1.8569  Tot=              7.7679
 Quadrupole moment (field-independent basis, Debye-Ang):
   XX=           -133.3273   YY=           -120.2944   ZZ=           -102.1347
   XY=              9.9010   XZ=             -9.2582   YZ=             -0.2312

 Normal termination of Gaussian 16 at Wed Aug 13 12:36:21 2025.
