 Gaussian 16, Revision C.02,
 Gaussian 16:  ES64L-G16RevC.02  7-Dec-2021

 ----------------------------------------------------------
 # td=(50-50,nstates=3) b3lyp/6-31+g(d,p) geom=connectivity
 ----------------------------------------------------------

 -------------------
 Title Card Required
 -------------------
 Symbolic Z-matrix:
 Charge =  0 Multiplicity = 1

                         Standard orientation:
 ---------------------------------------------------------------------
 Center     Atomic      Atomic             Coordinates (Angstroms)
 Number     Number       Type             X           Y           Z
 ---------------------------------------------------------------------
      1          6           0       -3.023142    5.029942   -0.230876
      2         14           0       -4.709410    4.216147    0.019310
      3          6           0       -5.414843    4.657881    1.715133
      4          6           0       -5.905424    4.731582   -1.348842
      5          6           0       -4.486707    2.384432   -0.060320
      6          6           0       -4.348898    1.169175   -0.115190
      7          6           0       -4.192052   -0.243741   -0.178706
      8          6           0       -5.347361   -1.052339    0.028963
      9          6           0       -6.355295   -1.722693    0.210668
     10         14           0       -7.893355   -2.705073    0.486703
     11          6           0       -7.466110   -4.538853    0.323875
     12          6           0       -8.541969   -2.329808    2.220850
     13          6           0       -9.166017   -2.204723   -0.816449
     14          6           0       -2.962317   -0.818455   -0.433602
     15          6           0       -2.667342   -2.228552   -0.527566
     16          6           0       -1.366266   -2.510277   -0.785613
     17          6           0       -0.510108   -1.345165   -0.925599
     18          6           0        0.814516   -1.354570   -1.199192
     19          6           0        1.703869   -0.144659   -1.335522
     20          6           0        2.625231   -0.019016   -0.151520
     21          6           0        3.974532   -0.089456   -0.209599
     22          6           0        4.818365    0.021535    0.950738
     23          6           0        6.181743   -0.025501    0.972168
     24          6           0        7.015385    0.086733    2.141884
     25          6           0        8.351416    0.005022    1.899454
     26          6           0        8.673532   -0.179404    0.506020
     27          6           0        9.945075   -0.296113   -0.031630
     28          6           0       10.150049   -0.477645   -1.429524
     29          7           0       10.288287   -0.625967   -2.577659
     30          6           0       11.091166   -0.237067    0.814675
     31          7           0       12.013854   -0.186213    1.525340
     32         16           0        7.211075   -0.241893   -0.470737
     33         16           0       -1.491204    0.135086   -0.692920
     34          1           0       -2.594628    4.760846   -1.202341
     35          1           0       -3.110860    6.122202   -0.191713
     36          1           0       -2.315752    4.720456    0.546087
     37          1           0       -6.379481    4.166448    1.881532
     38          1           0       -5.567744    5.740375    1.800684
     39          1           0       -4.737903    4.347469    2.518283
     40          1           0       -5.515382    4.463590   -2.336585
     41          1           0       -6.877617    4.241643   -1.228431
     42          1           0       -6.068736    5.815808   -1.332022
     43          1           0       -8.356784   -5.158656    0.481364
     44          1           0       -7.070542   -4.766973   -0.671915
     45          1           0       -6.714393   -4.838160    1.062450
     46          1           0       -9.462489   -2.891380    2.420330
     47          1           0       -8.765171   -1.263682    2.336102
     48          1           0       -7.807007   -2.602383    2.985859
     49          1           0       -8.796100   -2.404346   -1.827871
     50          1           0      -10.099854   -2.763379   -0.680974
     51          1           0       -9.398904   -1.136504   -0.750199
     52          1           0       -3.448487   -2.968007   -0.398289
     53          1           0       -0.963930   -3.512225   -0.890727
     54          1           0        1.295470   -2.325410   -1.303577
     55          1           0        2.295760   -0.217777   -2.256545
     56          1           0        1.092021    0.763356   -1.419243
     57          1           0        2.142357    0.116104    0.816455
     58          1           0        4.453188   -0.230403   -1.178322
     59          1           0        4.324387    0.158001    1.911841
     60          1           0        6.581592    0.224832    3.126625
     61          1           0        9.126614    0.067706    2.653641
 ---------------------------------------------------------------------

 SCF Done:  E(RB3LYP) =  -2530.57852191     A.U. after   18 cycles

 Excitation energies and oscillator strengths:

 Excited State   1:      Triplet-A      1.1809 eV 1049.88 nm  f=0.0000  <S**2>=2.000
     131 ->133         0.48436
     131 ->134         0.10037
     132 ->133        -0.34080
     132 ->134         0.39280
     131 <-133         0.13157
     132 <-134         0.11213
 This state for optimization and/or second-order correction.
 Total Energy, E(TD-HF/TD-DFT) =  -2530.53512341
 Copying the excited state density for this state as the 1-particle RhoCI density.

 Excited State   2:      Triplet-A      1.2532 eV  989.38 nm  f=0.0000  <S**2>=2.000
     131 ->133        -0.48402
     132 ->134         0.51841
     131 <-133        -0.12074
     132 <-134         0.13537

 Excited State   3:      Singlet-A      1.8652 eV  664.71 nm  f=0.2352  <S**2>=0.000
     132 ->133         0.70474

 Excited State   4:      Triplet-A      1.8853 eV  657.64 nm  f=0.0000  <S**2>=2.000
     131 ->133         0.19393
     132 ->133         0.61254
     132 ->134         0.28318

 Excited State   5:      Singlet-A      2.7880 eV  444.71 nm  f=1.7310  <S**2>=0.000
     131 ->133         0.48501
     132 ->134         0.50348

 Excited State   6:      Singlet-A      3.1296 eV  396.17 nm  f=0.0323  <S**2>=0.000
     131 ->133         0.49393
     132 ->134        -0.48400

 The electronic state is 1-A.
 Alpha  occ. eigenvalues --  -88.94519 -88.92419 -66.14421 -66.14415 -14.35643
 Alpha  occ. eigenvalues --  -14.35499 -10.29238 -10.27803 -10.27081 -10.26049
 Alpha  occ. eigenvalues --  -10.25602 -10.25257 -10.25237 -10.25161 -10.25040
 Alpha  occ. eigenvalues --  -10.25019 -10.24386 -10.24254 -10.23544 -10.23263
 Alpha  occ. eigenvalues --  -10.23174 -10.23006 -10.22829 -10.20678 -10.20641
 Alpha  occ. eigenvalues --  -10.18276 -10.18083 -10.17422 -10.17315 -10.17239
 Alpha  occ. eigenvalues --  -10.17234 -10.17218 -10.17211  -8.00455  -7.98318
 Alpha  occ. eigenvalues --   -5.96927  -5.96563  -5.96041  -5.94794  -5.94443
 Alpha  occ. eigenvalues --   -5.93898  -5.28697  -5.28693  -3.64695  -3.64694
 Alpha  occ. eigenvalues --   -3.64530  -3.64522  -3.64522  -3.64518  -0.93908
 Alpha  occ. eigenvalues --   -0.91975  -0.91654  -0.90885  -0.86582  -0.85009
 Alpha  occ. eigenvalues --   -0.83714  -0.81312  -0.78539  -0.77360  -0.76480
 Alpha  occ. eigenvalues --   -0.75169  -0.74090  -0.72591  -0.71985  -0.70636
 Alpha  occ. eigenvalues --   -0.68785  -0.68718  -0.68647  -0.68645  -0.68340
 Alpha  occ. eigenvalues --   -0.64843  -0.62411  -0.61356  -0.58973  -0.58822
 Alpha  occ. eigenvalues --   -0.57290  -0.56748  -0.55386  -0.54494  -0.53761
 Alpha  occ. eigenvalues --   -0.50986  -0.50828  -0.49780  -0.48353  -0.46764
 Alpha  occ. eigenvalues --   -0.45949  -0.45077  -0.44540  -0.44138  -0.42983
 Alpha  occ. eigenvalues --   -0.42900  -0.42656  -0.42173  -0.41854  -0.41645
 Alpha  occ. eigenvalues --   -0.41549  -0.41515  -0.41509  -0.40627  -0.40494
 Alpha  occ. eigenvalues --   -0.40110  -0.40055  -0.39992  -0.39984  -0.39838
 Alpha  occ. eigenvalues --   -0.38956  -0.38949  -0.38907  -0.38315  -0.37758
 Alpha  occ. eigenvalues --   -0.37517  -0.36544  -0.36271  -0.36128  -0.35852
 Alpha  occ. eigenvalues --   -0.35617  -0.35442  -0.35144  -0.34466  -0.32215
 Alpha  occ. eigenvalues --   -0.32081  -0.32001  -0.31643  -0.30444  -0.29668
 Alpha  occ. eigenvalues --   -0.29030  -0.28800  -0.28459  -0.27772  -0.27201
 Alpha  occ. eigenvalues --   -0.23399  -0.20852
 Alpha virt. eigenvalues --   -0.12870  -0.09961  -0.05203  -0.03176  -0.02222
 Alpha virt. eigenvalues --   -0.01928  -0.01669  -0.01351  -0.01057  -0.00802
 Alpha virt. eigenvalues --   -0.00205   0.00124   0.00211   0.00299   0.00532

 Mulliken charges:
               1
     1  C   -0.691260
     2  Si   1.199138
     3  C   -0.674005
     4  C   -0.672903
     5  C   -0.868253
     6  C    0.247488
     7  C   -0.370468
     8  C    0.684783
     9  C   -1.024736
    10  Si   1.198086
    11  C   -0.696251
    12  C   -0.670476
    13  C   -0.670638
    14  C    0.107094
    15  C   -0.329081
    16  C    0.425905
    17  C   -0.603911
    18  C    0.209407
    19  C    0.092562
    20  C    0.220022
    21  C   -0.231986
    22  C   -0.060920
    23  C   -0.154940
    24  C   -0.102067
    25  C    0.085588
    26  C    0.193525
    27  C    1.058044
    28  C   -0.341931
    29  N   -0.475827
    30  C   -0.337456
    31  N   -0.505251
    32  S   -0.326843
    33  S   -0.354928
    34  H    0.166789
    35  H    0.161823
    36  H    0.165406
    37  H    0.167775
    38  H    0.160913
    39  H    0.165886
    40  H    0.166779
    41  H    0.167812
    42  H    0.160903
    43  H    0.163216
    44  H    0.165499
    45  H    0.164868
    46  H    0.160744
    47  H    0.167915
    48  H    0.165556
    49  H    0.166107
    50  H    0.160701
    51  H    0.167878
    52  H    0.159329
    53  H    0.141088
    54  H    0.136429
    55  H    0.156254
    56  H    0.161165
    57  H    0.136700
    58  H    0.123980
    59  H    0.137468
    60  H    0.151196
    61  H    0.172310
 Sum of Mulliken charges =  -0.00000

 Dipole moment (field-independent basis, Debye):
    X=             -9.6932    Y=             -0.3187    Z=              2.9092  Tot=             10.1253
 Quadrupole moment (field-independent basis, Debye-Ang):
   XX=           -363.4863   YY=           -212.1022   ZZ=           -233.6504
   XY=             10.5764   XZ=             19.9171   YZ=              0.3310

 Normal termination of Gaussian 16 at Wed Aug 13 12:49:39 2025.
