 Gaussian 16, Revision C.02,
 Gaussian 16:  ES64L-G16RevC.02  7-Dec-2021

 ----------------------------------------------------------
 # td=(50-50,nstates=3) b3lyp/6-31+g(d,p) geom=connectivity
 ----------------------------------------------------------

 -------------------
 Title Card Required
 -------------------
 Symbolic Z-matrix:
 Charge =  0 Multiplicity = 1

                         Standard orientation:
 ---------------------------------------------------------------------
 Center     Atomic      Atomic             Coordinates (Angstroms)
 Number     Number       Type             X           Y           Z
 ---------------------------------------------------------------------
      1          6           0       -0.585973   -1.251622    2.917422
      2          6           0       -1.390744   -1.304723    1.642360
      3          6           0       -2.630643   -2.054240    1.687691
      4          6           0       -3.484570   -2.184975    0.630812
      5          6           0       -3.115251   -1.534030   -0.584575
      6          7           0       -3.746874   -1.513092   -1.747610
      7          8           0       -2.973129   -0.753146   -2.580691
      8          7           0       -1.803266   -0.292327   -1.872286
      9          8           0       -0.989835    0.421886   -2.460180
     10          6           0       -1.901952   -0.789334   -0.631452
     11          6           0       -1.013094   -0.655067    0.481652
     12          6           0        0.277374    0.079028    0.311872
     13          6           0        1.416483   -0.659666    0.179613
     14          6           0        2.711304   -0.069402   -0.062226
     15          6           0        3.849988   -0.860398   -0.169528
     16          6           0        5.135783   -0.296098   -0.426005
     17          7           0        6.182061    0.172802   -0.631954
     18          6           0        3.797792   -2.279179   -0.018899
     19          7           0        3.742575   -3.435474    0.111714
     20          6           0        2.773083    1.365495   -0.204594
     21          6           0        1.656074    2.118786   -0.064577
     22          6           0        0.360570    1.539090    0.240325
     23          6           0       -0.706128    2.398631    0.480028
     24          6           0       -2.028747    2.015153    0.861034
     25          7           0       -3.128374    1.810497    1.187613
     26          6           0       -0.537959    3.817764    0.389922
     27          7           0       -0.409255    4.973426    0.325818
     28          1           0       -1.212473   -0.894154    3.742507
     29          1           0       -0.231213   -2.251652    3.194411
     30          1           0        0.282145   -0.595986    2.842288
     31          1           0       -2.883149   -2.531635    2.630258
     32          1           0       -4.407150   -2.750496    0.693281
     33          1           0        1.347366   -1.741400    0.230031
     34          1           0        3.726270    1.837002   -0.418624
     35          1           0        1.723509    3.196290   -0.165495
 ---------------------------------------------------------------------

 SCF Done:  E(RB3LYP) =  -1207.58259526     A.U. after   20 cycles

 Excitation energies and oscillator strengths:

 Excited State   1:      Triplet-A      0.6196 eV 2000.96 nm  f=0.0000  <S**2>=2.000
      89 -> 91         0.75984
      90 -> 91        -0.22648
      89 <- 91         0.36904
 This state for optimization and/or second-order correction.
 Total Energy, E(TD-HF/TD-DFT) =  -1207.55982452
 Copying the excited state density for this state as the 1-particle RhoCI density.

 Excited State   2:      Triplet-A      1.2205 eV 1015.85 nm  f=0.0000  <S**2>=2.000
      89 -> 91         0.21786
      90 -> 91         0.66915

 Excited State   3:      Singlet-A      1.2375 eV 1001.90 nm  f=0.0073  <S**2>=0.000
      90 -> 91         0.70345

 Excited State   4:      Triplet-A      1.3603 eV  911.46 nm  f=0.0000  <S**2>=2.000
      90 -> 92         0.70856
      90 <- 92         0.21270

 Excited State   5:      Singlet-A      2.9110 eV  425.92 nm  f=0.8913  <S**2>=0.000
      86 -> 91         0.10550
      87 -> 91         0.10257
      88 -> 91         0.12948
      89 -> 91         0.68776
      89 <- 91        -0.16023

 Excited State   6:      Singlet-A      2.9511 eV  420.13 nm  f=0.0625  <S**2>=0.000
      86 -> 91         0.19788
      87 -> 91         0.20426
      88 -> 91         0.61359
      89 -> 91        -0.18228

 The electronic state is 1-A.
 Alpha  occ. eigenvalues --  -19.30654 -19.21379 -14.57173 -14.43644 -14.39288
 Alpha  occ. eigenvalues --  -14.39185 -14.39180 -14.39124 -10.32390 -10.32188
 Alpha  occ. eigenvalues --  -10.30404 -10.30016 -10.29367 -10.28844 -10.28432
 Alpha  occ. eigenvalues --  -10.28404 -10.28274 -10.28241 -10.28232 -10.27212
 Alpha  occ. eigenvalues --  -10.27115 -10.26982 -10.26873 -10.26647 -10.25319
 Alpha  occ. eigenvalues --  -10.25042 -10.22986  -1.24499  -1.14434  -0.97305
 Alpha  occ. eigenvalues --   -0.96732  -0.95389  -0.95151  -0.95059  -0.93876
 Alpha  occ. eigenvalues --   -0.90961  -0.89823  -0.88070  -0.85214  -0.84205
 Alpha  occ. eigenvalues --   -0.80450  -0.77866  -0.76465  -0.70885  -0.69930
 Alpha  occ. eigenvalues --   -0.69370  -0.67452  -0.64632  -0.64351  -0.60617
 Alpha  occ. eigenvalues --   -0.60117  -0.58606  -0.57444  -0.56454  -0.55969
 Alpha  occ. eigenvalues --   -0.53573  -0.51778  -0.50820  -0.50007  -0.49694
 Alpha  occ. eigenvalues --   -0.47927  -0.47163  -0.46779  -0.46372  -0.45793
 Alpha  occ. eigenvalues --   -0.44748  -0.43202  -0.42865  -0.42736  -0.41781
 Alpha  occ. eigenvalues --   -0.41512  -0.41448  -0.41230  -0.40970  -0.40828
 Alpha  occ. eigenvalues --   -0.40347  -0.39268  -0.38932  -0.38783  -0.38747
 Alpha  occ. eigenvalues --   -0.38618  -0.37673  -0.37443  -0.35267  -0.33679
 Alpha  occ. eigenvalues --   -0.32381  -0.32010  -0.31772  -0.27901  -0.25324
 Alpha virt. eigenvalues --   -0.18633  -0.12333  -0.07848  -0.07702  -0.05518
 Alpha virt. eigenvalues --   -0.04469  -0.04026  -0.02987  -0.02513  -0.01232
 Alpha virt. eigenvalues --   -0.00522  -0.00396  -0.00108  -0.00035   0.00186

 Mulliken charges:
               1
     1  C   -0.577641
     2  C    0.684961
     3  C   -0.084509
     4  C    0.333679
     5  C    0.332047
     6  N   -0.416471
     7  O    0.436017
     8  N   -0.841369
     9  O    0.070370
    10  C   -0.436487
    11  C   -0.254276
    12  C   -0.540638
    13  C   -0.312264
    14  C    1.603912
    15  C    0.815864
    16  C   -0.148085
    17  N   -0.453595
    18  C   -0.565449
    19  N   -0.445965
    20  C   -0.773954
    21  C   -0.746539
    22  C    1.847394
    23  C    0.444752
    24  C   -0.550300
    25  N   -0.365118
    26  C    0.072731
    27  N   -0.462033
    28  H    0.178409
    29  H    0.177505
    30  H    0.157493
    31  H    0.144995
    32  H    0.163123
    33  H    0.162680
    34  H    0.173127
    35  H    0.175634
 Sum of Mulliken charges =  -0.00000

 Dipole moment (field-independent basis, Debye):
    X=             -0.8031    Y=             -2.4075    Z=              4.6331  Tot=              5.2827
 Quadrupole moment (field-independent basis, Debye-Ang):
   XX=           -188.3160   YY=           -177.0295   ZZ=           -156.1813
   XY=             19.7110   XZ=             -5.0695   YZ=             -6.9621

 Normal termination of Gaussian 16 at Wed Aug 13 12:54:18 2025.
