 Gaussian 16, Revision C.02,
 Gaussian 16:  ES64L-G16RevC.02  7-Dec-2021

 ----------------------------------------------------------
 # td=(50-50,nstates=3) b3lyp/6-31+g(d,p) geom=connectivity
 ----------------------------------------------------------

 -------------------
 Title Card Required
 -------------------
 Symbolic Z-matrix:
 Charge =  0 Multiplicity = 1

                         Standard orientation:
 ---------------------------------------------------------------------
 Center     Atomic      Atomic             Coordinates (Angstroms)
 Number     Number       Type             X           Y           Z
 ---------------------------------------------------------------------
      1          6           0       -1.353705    2.135147    1.695144
      2          6           0       -1.794086    1.549742    0.564520
      3          6           0       -2.442689    2.349046   -0.445837
      4          7           0       -2.951518    3.001492   -1.263100
      5          6           0       -1.644631    0.113562    0.276815
      6          6           0       -0.598045   -0.726471    0.383272
      7          6           0        0.813675   -0.433015    0.825016
      8          6           0        1.120620   -1.155906    2.156384
      9          6           0        1.839883   -0.801856   -0.291256
     10          6           0        3.021535    0.182328   -0.527939
     11          6           0        3.839514    0.426257    0.755589
     12          6           0        3.944291   -0.451833   -1.590168
     13          6           0        2.501342    1.530368   -1.068639
     14          6           0       -1.077994   -2.078486   -0.085508
     15          6           0       -2.523757   -1.822883   -0.487589
     16          8           0       -3.345724   -2.577091   -0.931287
     17          8           0       -2.800071   -0.490481   -0.242119
     18          1           0       -0.903915    1.547059    2.486816
     19          1           0       -1.447970    3.204878    1.845185
     20          1           0        0.874977    0.644768    1.007991
     21          1           0        2.133267   -0.932155    2.501002
     22          1           0        0.419600   -0.856439    2.942989
     23          1           0        1.046181   -2.243027    2.039043
     24          1           0        2.252045   -1.797652   -0.077348
     25          1           0        1.312919   -0.890666   -1.249535
     26          1           0        4.699911    1.070155    0.540684
     27          1           0        3.248245    0.924628    1.531518
     28          1           0        4.224148   -0.512841    1.170368
     29          1           0        4.784386    0.212154   -1.823471
     30          1           0        3.402414   -0.643935   -2.523615
     31          1           0        4.358431   -1.404377   -1.239205
     32          1           0        1.936777    1.393280   -1.998105
     33          1           0        1.847366    2.039639   -0.352538
     34          1           0        3.336810    2.206375   -1.282780
     35          1           0       -0.521001   -2.476355   -0.941695
     36          1           0       -1.053323   -2.851364    0.692826
 ---------------------------------------------------------------------

 SCF Done:  E(RB3LYP) =  -750.144089538     A.U. after   15 cycles

 Excitation energies and oscillator strengths:

 Excited State   1:      Triplet-A      2.7075 eV  457.93 nm  f=0.0000  <S**2>=2.000
      61 -> 64         0.27385
      63 -> 64         0.61933
      63 -> 65         0.10315
 This state for optimization and/or second-order correction.
 Total Energy, E(TD-HF/TD-DFT) =  -750.044591922
 Copying the excited state density for this state as the 1-particle RhoCI density.

 Excited State   2:      Triplet-A      3.6671 eV  338.10 nm  f=0.0000  <S**2>=2.000
      61 -> 64         0.51500
      62 -> 64        -0.19806
      63 -> 64        -0.17360
      63 -> 65        -0.31826
      63 -> 68        -0.10797

 Excited State   3:      Singlet-A      4.0153 eV  308.78 nm  f=0.0772  <S**2>=0.000
      61 -> 64        -0.10301
      63 -> 64         0.69187

 Excited State   4:      Triplet-A      4.5252 eV  273.99 nm  f=0.0000  <S**2>=2.000
      61 -> 64         0.24647
      61 -> 65        -0.10882
      62 -> 64        -0.12637
      63 -> 64        -0.26057
      63 -> 65         0.55828

 Excited State   5:      Singlet-A      4.9647 eV  249.73 nm  f=0.0054  <S**2>=0.000
      61 -> 64         0.10401
      62 -> 64         0.65730
      62 -> 65         0.17949
      63 -> 65        -0.12562

 Excited State   6:      Singlet-A      5.2709 eV  235.22 nm  f=0.0653  <S**2>=0.000
      61 -> 64         0.11814
      62 -> 64         0.10965
      63 -> 65         0.67517

 The electronic state is 1-A.
 Alpha  occ. eigenvalues --  -19.22747 -19.16630 -14.35805 -10.34245 -10.28544
 Alpha  occ. eigenvalues --  -10.27557 -10.24914 -10.24550 -10.23550 -10.23254
 Alpha  occ. eigenvalues --  -10.22805 -10.21897 -10.20501 -10.20447 -10.19153
 Alpha  occ. eigenvalues --  -10.18885 -10.18846  -1.13581  -1.05632  -0.92516
 Alpha  occ. eigenvalues --   -0.87155  -0.85029  -0.83322  -0.78761  -0.74690
 Alpha  occ. eigenvalues --   -0.70842  -0.69977  -0.69745  -0.68409  -0.64273
 Alpha  occ. eigenvalues --   -0.61387  -0.58074  -0.55440  -0.55004  -0.51401
 Alpha  occ. eigenvalues --   -0.49909  -0.48915  -0.47994  -0.46873  -0.46120
 Alpha  occ. eigenvalues --   -0.45440  -0.44264  -0.44081  -0.43187  -0.42706
 Alpha  occ. eigenvalues --   -0.42011  -0.41264  -0.40065  -0.39907  -0.39447
 Alpha  occ. eigenvalues --   -0.38218  -0.37905  -0.37739  -0.37160  -0.36569
 Alpha  occ. eigenvalues --   -0.36368  -0.34965  -0.33726  -0.33323  -0.33195
 Alpha  occ. eigenvalues --   -0.30975  -0.29600  -0.25628
 Alpha virt. eigenvalues --   -0.08678  -0.03469  -0.01774  -0.00654  -0.00020
 Alpha virt. eigenvalues --    0.00202   0.00756   0.01972   0.02159   0.02550
 Alpha virt. eigenvalues --    0.02777   0.02975   0.03340   0.03998   0.04243

 Mulliken charges:
               1
     1  C   -0.352118
     2  C    0.424234
     3  C   -0.071516
     4  N   -0.477113
     5  C    0.240567
     6  C   -0.054282
     7  C    0.340125
     8  C   -0.493978
     9  C   -1.004580
    10  C    0.356736
    11  C   -0.486116
    12  C   -0.497694
    13  C   -0.461548
    14  C   -0.076629
    15  C    0.468006
    16  O   -0.465756
    17  O   -0.271866
    18  H    0.158533
    19  H    0.167784
    20  H    0.116644
    21  H    0.155612
    22  H    0.142922
    23  H    0.150149
    24  H    0.140604
    25  H    0.140053
    26  H    0.149154
    27  H    0.142955
    28  H    0.144747
    29  H    0.148910
    30  H    0.148117
    31  H    0.146434
    32  H    0.148272
    33  H    0.137626
    34  H    0.149121
    35  H    0.197845
    36  H    0.198047
 Sum of Mulliken charges =  -0.00000

 Dipole moment (field-independent basis, Debye):
    X=              6.4902    Y=             -0.7362    Z=              4.1805  Tot=              7.7551
 Quadrupole moment (field-independent basis, Debye-Ang):
   XX=           -127.9542   YY=           -112.9683   ZZ=           -104.2313
   XY=             -0.7951   XZ=            -11.7331   YZ=              5.5634

 Normal termination of Gaussian 16 at Wed Aug 13 12:38:18 2025.
