 Gaussian 16, Revision C.02,
 Gaussian 16:  ES64L-G16RevC.02  7-Dec-2021

 ----------------------------------------------------------
 # td=(50-50,nstates=3) b3lyp/6-31+g(d,p) geom=connectivity
 ----------------------------------------------------------

 -------------------
 Title Card Required
 -------------------
 Symbolic Z-matrix:
 Charge =  0 Multiplicity = 1

                         Standard orientation:
 ---------------------------------------------------------------------
 Center     Atomic      Atomic             Coordinates (Angstroms)
 Number     Number       Type             X           Y           Z
 ---------------------------------------------------------------------
      1          6           0        0.769847    1.898182    2.557817
      2          6           0        1.061989    2.953456    1.510157
      3          8           0        0.863529    4.131922    1.763547
      4          6           0        1.677367    2.590908    0.174095
      5          6           0        2.454807    3.599527   -0.418841
      6          6           0        3.128897    3.393482   -1.619281
      7          6           0        3.027026    2.159621   -2.266078
      8          6           0        2.247221    1.151413   -1.705852
      9          6           0        1.566120    1.345313   -0.488966
     10          6           0        0.692052    0.239482   -0.051768
     11          7           0       -0.613525    0.411194    0.131077
     12          8           0       -1.294328    1.481981    0.123352
     13          6           0       -1.288209   -0.918503    0.303788
     14          6           0       -1.880022   -1.006511    1.640070
     15          7           0       -2.341838   -1.073273    2.701440
     16          6           0       -2.268727   -1.243548   -0.857557
     17          6           0       -3.656834   -0.648738   -0.773200
     18          6           0       -4.683787   -1.365944   -0.142419
     19          6           0       -5.978421   -0.846735   -0.079514
     20          6           0       -6.262069    0.394605   -0.654288
     21          6           0       -5.245975    1.112624   -1.290923
     22          6           0       -3.951243    0.594591   -1.350048
     23          7           0       -0.117418   -1.862340    0.223439
     24          8           0       -0.324132   -3.112955    0.335920
     25          6           0        1.014135   -1.184657    0.035670
     26          6           0        2.334496   -1.819737   -0.010249
     27          6           0        2.486294   -3.150737   -0.450606
     28          6           0        3.750500   -3.738449   -0.483074
     29          6           0        4.876066   -3.026009   -0.061907
     30          6           0        4.732488   -1.711933    0.393225
     31          6           0        3.476406   -1.110398    0.415694
     32          1           0        0.900831    2.356668    3.540086
     33          1           0       -0.278303    1.592534    2.474788
     34          1           0        1.406880    1.014001    2.476731
     35          1           0        2.515960    4.552523    0.095089
     36          1           0        3.729136    4.190262   -2.048008
     37          1           0        3.542914    1.983198   -3.204983
     38          1           0        2.149373    0.201482   -2.221742
     39          1           0       -1.761157   -0.935122   -1.777300
     40          1           0       -2.320805   -2.337398   -0.855195
     41          1           0       -4.471165   -2.335046    0.301565
     42          1           0       -6.762406   -1.412905    0.414526
     43          1           0       -7.268912    0.799280   -0.607964
     44          1           0       -5.459116    2.078769   -1.738654
     45          1           0       -3.162224    1.165654   -1.828526
     46          1           0        1.614402   -3.717696   -0.749358
     47          1           0        3.852129   -4.762442   -0.829580
     48          1           0        5.856592   -3.492409   -0.080393
     49          1           0        5.598899   -1.153714    0.734634
     50          1           0        3.383343   -0.092103    0.774374
 ---------------------------------------------------------------------

 SCF Done:  E(RB3LYP) =  -1353.94663411     A.U. after   20 cycles

 Excitation energies and oscillator strengths:

 Excited State   1:      Triplet-A      0.6990 eV 1773.68 nm  f=0.0000  <S**2>=2.000
     107 ->108         0.78464
     107 <-108         0.38928
 This state for optimization and/or second-order correction.
 Total Energy, E(TD-HF/TD-DFT) =  -1353.92094547
 Copying the excited state density for this state as the 1-particle RhoCI density.

 Excited State   2:      Triplet-A      2.4539 eV  505.26 nm  f=0.0000  <S**2>=2.000
      97 ->108        -0.18459
     103 ->108         0.40516
     106 ->108        -0.19439
     107 ->109         0.40348
     107 ->110        -0.23030

 Excited State   3:      Singlet-A      2.9403 eV  421.67 nm  f=0.0138  <S**2>=0.000
     107 ->108         0.68401
     107 ->109        -0.16691
     107 <-108        -0.10839

 Excited State   4:      Triplet-A      2.9816 eV  415.83 nm  f=0.0000  <S**2>=2.000
     100 ->108        -0.31765
     101 ->108        -0.18350
     102 ->108         0.25405
     104 ->108         0.33013
     104 ->109        -0.28072
     106 ->108        -0.24445

 Excited State   5:      Singlet-A      3.2360 eV  383.14 nm  f=0.0318  <S**2>=0.000
     100 ->108         0.26872
     101 ->108         0.15190
     102 ->108        -0.22766
     104 ->108        -0.23812
     106 ->108         0.51725

 Excited State   6:      Singlet-A      3.3516 eV  369.92 nm  f=0.0149  <S**2>=0.000
     100 ->108        -0.11106
     104 ->108         0.46045
     104 ->109        -0.18275
     106 ->108         0.30328
     107 ->109         0.33936

 The electronic state is 1-A.
 Alpha  occ. eigenvalues --  -19.17471 -19.17394 -19.15402 -14.51371 -14.50996
 Alpha  occ. eigenvalues --  -14.37669 -10.35010 -10.29475 -10.29058 -10.28935
 Alpha  occ. eigenvalues --  -10.26453 -10.24991 -10.24274 -10.24202 -10.23332
 Alpha  occ. eigenvalues --  -10.22960 -10.22657 -10.22556 -10.22380 -10.22215
 Alpha  occ. eigenvalues --  -10.22041 -10.22028 -10.22012 -10.21852 -10.21734
 Alpha  occ. eigenvalues --  -10.20412 -10.20277 -10.20215 -10.20198 -10.20112
 Alpha  occ. eigenvalues --  -10.19633  -1.16389  -1.13733  -1.05325  -0.97990
 Alpha  occ. eigenvalues --   -0.94037  -0.89918  -0.89187  -0.87530  -0.85310
 Alpha  occ. eigenvalues --   -0.85242  -0.80124  -0.79212  -0.78232  -0.77553
 Alpha  occ. eigenvalues --   -0.76930  -0.75598  -0.74788  -0.71145  -0.68527
 Alpha  occ. eigenvalues --   -0.67623  -0.64814  -0.63938  -0.62349  -0.62046
 Alpha  occ. eigenvalues --   -0.61654  -0.60938  -0.58813  -0.57629  -0.55293
 Alpha  occ. eigenvalues --   -0.53956  -0.53154  -0.51867  -0.51647  -0.49855
 Alpha  occ. eigenvalues --   -0.49562  -0.49328  -0.48789  -0.48089  -0.47516
 Alpha  occ. eigenvalues --   -0.46983  -0.46845  -0.46575  -0.45594  -0.45415
 Alpha  occ. eigenvalues --   -0.45093  -0.44655  -0.44473  -0.43282  -0.43033
 Alpha  occ. eigenvalues --   -0.42537  -0.41498  -0.41150  -0.40077  -0.39756
 Alpha  occ. eigenvalues --   -0.39266  -0.38331  -0.38292  -0.37830  -0.37357
 Alpha  occ. eigenvalues --   -0.37275  -0.36874  -0.36651  -0.36328  -0.35723
 Alpha  occ. eigenvalues --   -0.35163  -0.32866  -0.30800  -0.29693  -0.28735
 Alpha  occ. eigenvalues --   -0.28457  -0.27792  -0.27039  -0.26430  -0.26208
 Alpha  occ. eigenvalues --   -0.25830  -0.22762
 Alpha virt. eigenvalues --   -0.11401  -0.08085  -0.05787  -0.04171  -0.03639
 Alpha virt. eigenvalues --   -0.03113  -0.02286  -0.01678  -0.01268  -0.00878
 Alpha virt. eigenvalues --    0.00024   0.00372   0.00498   0.00681   0.01186

 Mulliken charges:
               1
     1  C   -0.366187
     2  C    0.237740
     3  O   -0.388340
     4  C    0.293942
     5  C    0.127883
     6  C   -0.308539
     7  C   -0.025881
     8  C   -0.187284
     9  C   -0.353323
    10  C    0.239858
    11  N   -0.764447
    12  O    0.442361
    13  C   -0.364815
    14  C   -0.121384
    15  N   -0.345944
    16  C   -0.227004
    17  C    0.647854
    18  C   -0.215026
    19  C   -0.106144
    20  C   -0.069886
    21  C   -0.365429
    22  C    0.027668
    23  N   -0.412444
    24  O    0.204295
    25  C    0.071635
    26  C    0.126535
    27  C    0.056985
    28  C   -0.121585
    29  C   -0.029462
    30  C   -0.522440
    31  C    0.005487
    32  H    0.180222
    33  H    0.211445
    34  H    0.154884
    35  H    0.166167
    36  H    0.138397
    37  H    0.137336
    38  H    0.124295
    39  H    0.152567
    40  H    0.205971
    41  H    0.124918
    42  H    0.129475
    43  H    0.127615
    44  H    0.130094
    45  H    0.132048
    46  H    0.165953
    47  H    0.135727
    48  H    0.133050
    49  H    0.134507
    50  H    0.128649
 Sum of Mulliken charges =  -0.00000

 Dipole moment (field-independent basis, Debye):
    X=              4.6626    Y=             -1.6961    Z=             -4.8675  Tot=              6.9504
 Quadrupole moment (field-independent basis, Debye-Ang):
   XX=           -153.4469   YY=           -194.1430   ZZ=           -185.3926
   XY=             -0.6138   XZ=              2.4500   YZ=             -3.2782

 Normal termination of Gaussian 16 at Wed Aug 13 16:10:39 2025.
