 Gaussian 16, Revision C.02,
 Gaussian 16:  ES64L-G16RevC.02  7-Dec-2021

 ----------------------------------------------------------
 # td=(50-50,nstates=3) b3lyp/6-31+g(d,p) geom=connectivity
 ----------------------------------------------------------

 -------------------
 Title Card Required
 -------------------
 Symbolic Z-matrix:
 Charge =  0 Multiplicity = 1

                         Standard orientation:
 ---------------------------------------------------------------------
 Center     Atomic      Atomic             Coordinates (Angstroms)
 Number     Number       Type             X           Y           Z
 ---------------------------------------------------------------------
      1          6           0        1.392501    4.138481    1.035093
      2          6           0        0.647338    3.261730    0.043044
      3          8           0        0.824403    1.899144    0.436248
      4          6           0        0.340622    0.929156   -0.488364
      5          6           0        0.921876   -0.429179   -0.117191
      6          6           0        2.334601   -0.756981   -0.109181
      7          6           0        2.823095   -2.025829    0.283881
      8          6           0        4.191732   -2.292097    0.252981
      9          6           0        5.101716   -1.319170   -0.166843
     10          6           0        4.631329   -0.060490   -0.557666
     11          6           0        3.269315    0.219696   -0.527625
     12          7           0       -0.069996   -1.272476    0.177444
     13          8           0       -0.014801   -2.495779    0.536985
     14          6           0       -1.348564   -0.629201    0.004247
     15          6           0       -2.581140   -1.227162    0.191208
     16          6           0       -3.688851   -0.411867   -0.067552
     17         17           0       -5.299816   -1.076531    0.146157
     18          6           0       -3.551351    0.910193   -0.501151
     19          6           0       -2.274113    1.463920   -0.684921
     20          6           0       -1.157800    0.680633   -0.415870
     21          1           0        1.274296    5.193528    0.766374
     22          1           0        1.000486    3.992245    2.045785
     23          1           0        2.459432    3.897178    1.041729
     24          1           0        1.037517    3.403186   -0.978488
     25          1           0       -0.420556    3.520571    0.034107
     26          1           0        0.643098    1.214317   -1.510250
     27          1           0        2.120275   -2.782099    0.604915
     28          1           0        4.546922   -3.271836    0.559150
     29          1           0        6.165710   -1.536156   -0.189396
     30          1           0        5.329019    0.705528   -0.883616
     31          1           0        2.925600    1.205971   -0.815728
     32          1           0       -2.664175   -2.258425    0.511053
     33          1           0       -4.437494    1.501890   -0.701244
     34          1           0       -2.183950    2.484538   -1.041573
 ---------------------------------------------------------------------

 SCF Done:  E(RB3LYP) =  -1283.51063755     A.U. after   17 cycles

 Excitation energies and oscillator strengths:

 Excited State   1:      Triplet-A      1.6046 eV  772.66 nm  f=0.0000  <S**2>=2.000
      75 -> 76         0.69572
      75 -> 78        -0.10129
      75 <- 76         0.16677
 This state for optimization and/or second-order correction.
 Total Energy, E(TD-HF/TD-DFT) =  -1283.45166775
 Copying the excited state density for this state as the 1-particle RhoCI density.

 Excited State   2:      Triplet-A      3.3120 eV  374.35 nm  f=0.0000  <S**2>=2.000
      72 -> 76         0.16688
      73 -> 76         0.66747

 Excited State   3:      Triplet-A      3.4069 eV  363.92 nm  f=0.0000  <S**2>=2.000
      70 -> 76         0.25038
      70 -> 78         0.13822
      72 -> 76         0.34884
      72 -> 77         0.28876
      73 -> 77        -0.11008
      74 -> 76         0.13940
      75 -> 77         0.24481
      75 -> 78         0.24736

 Excited State   4:      Singlet-A      3.4169 eV  362.86 nm  f=0.3708  <S**2>=0.000
      75 -> 76         0.69201

 Excited State   5:      Singlet-A      3.6193 eV  342.57 nm  f=0.0009  <S**2>=0.000
      72 -> 76         0.20739
      73 -> 76         0.66673

 Excited State   6:      Singlet-A      4.0063 eV  309.47 nm  f=0.0799  <S**2>=0.000
      70 -> 76         0.10853
      72 -> 76        -0.16758
      75 -> 77         0.66948

 The electronic state is 1-A.
 Alpha  occ. eigenvalues -- -101.56527 -19.18238 -19.14716 -14.48969 -10.28391
 Alpha  occ. eigenvalues --  -10.27773 -10.25679 -10.25603 -10.25508 -10.23146
 Alpha  occ. eigenvalues --  -10.22875 -10.22716 -10.22694 -10.22109 -10.20655
 Alpha  occ. eigenvalues --  -10.20451 -10.20342 -10.20007 -10.19739 -10.19509
 Alpha  occ. eigenvalues --   -9.48032  -7.24447  -7.23466  -7.23430  -1.12257
 Alpha  occ. eigenvalues --   -1.06219  -0.93564  -0.90325  -0.86950  -0.84742
 Alpha  occ. eigenvalues --   -0.80242  -0.78476  -0.77360  -0.75638  -0.74988
 Alpha  occ. eigenvalues --   -0.71281  -0.66755  -0.63942  -0.62772  -0.62304
 Alpha  occ. eigenvalues --   -0.60731  -0.57692  -0.54163  -0.53298  -0.52895
 Alpha  occ. eigenvalues --   -0.51863  -0.50076  -0.48749  -0.47926  -0.47692
 Alpha  occ. eigenvalues --   -0.47089  -0.46082  -0.45012  -0.44919  -0.42990
 Alpha  occ. eigenvalues --   -0.42787  -0.41375  -0.40823  -0.40337  -0.39505
 Alpha  occ. eigenvalues --   -0.39364  -0.37973  -0.37520  -0.36435  -0.35515
 Alpha  occ. eigenvalues --   -0.35164  -0.34044  -0.32741  -0.29622  -0.28737
 Alpha  occ. eigenvalues --   -0.28406  -0.26878  -0.26479  -0.26205  -0.21840
 Alpha virt. eigenvalues --   -0.08598  -0.04657  -0.02146  -0.01789  -0.00973
 Alpha virt. eigenvalues --   -0.00089   0.00660   0.01123   0.01487   0.01691
 Alpha virt. eigenvalues --    0.02174   0.02753   0.03548   0.04020   0.04275

 Mulliken charges:
               1
     1  C   -0.714484
     2  C    0.180983
     3  O   -0.274159
     4  C    0.485175
     5  C    0.107875
     6  C    0.241801
     7  C   -0.104249
     8  C   -0.064309
     9  C   -0.163535
    10  C   -0.210643
    11  C   -0.564896
    12  N   -0.218189
    13  O   -0.039948
    14  C   -0.603425
    15  C   -0.285530
    16  C    0.080762
    17  Cl   0.272158
    18  C   -0.078993
    19  C   -0.519103
    20  C    0.483226
    21  H    0.146433
    22  H    0.165374
    23  H    0.162651
    24  H    0.113925
    25  H    0.119508
    26  H    0.142199
    27  H    0.176958
    28  H    0.130394
    29  H    0.126869
    30  H    0.125127
    31  H    0.120775
    32  H    0.180650
    33  H    0.147832
    34  H    0.130790
 Sum of Mulliken charges =  -0.00000

 Dipole moment (field-independent basis, Debye):
    X=              1.1927    Y=              4.7735    Z=             -2.0078  Tot=              5.3142
 Quadrupole moment (field-independent basis, Debye-Ang):
   XX=           -118.9653   YY=           -118.5117   ZZ=           -127.9541
   XY=             -4.3578   XZ=             -0.2358   YZ=             -3.2990

 Normal termination of Gaussian 16 at Tue Sep 30 12:26:12 2025.
