 Gaussian 16, Revision C.02,
 Gaussian 16:  ES64L-G16RevC.02  7-Dec-2021

 ----------------------------------------------------------
 # td=(50-50,nstates=3) b3lyp/6-31+g(d,p) geom=connectivity
 ----------------------------------------------------------

 -------------------
 Title Card Required
 -------------------
 Symbolic Z-matrix:
 Charge =  0 Multiplicity = 1

                         Standard orientation:
 ---------------------------------------------------------------------
 Center     Atomic      Atomic             Coordinates (Angstroms)
 Number     Number       Type             X           Y           Z
 ---------------------------------------------------------------------
      1          6           0        2.239442   -2.682481    0.000509
      2          6           0        2.071434   -1.336786    0.000026
      3          6           0        3.206823   -0.449541   -0.000497
      4          7           0        4.115478    0.276766   -0.000859
      5          6           0        0.759986   -0.744538    0.000013
      6          6           0        0.161382    0.467757   -0.000375
      7          6           0        0.511065    1.918080    0.000148
      8          6           0       -0.010940    2.620984   -1.272639
      9          6           0       -0.010567    2.619633    1.273880
     10          6           0       -1.127510   -0.384479   -0.000128
     11         16           0       -2.808011    0.018495   -0.000428
     12          6           0       -3.532738   -1.662049   -0.000031
     13          7           0       -0.541768   -1.548160    0.000205
     14          1           0        1.368581   -3.327518    0.000884
     15          1           0        3.226969   -3.128537    0.000498
     16          1           0        1.605795    1.982162    0.000055
     17          1           0        0.285919    3.675273   -1.269365
     18          1           0        0.392293    2.154692   -2.176599
     19          1           0       -1.104822    2.580185   -1.327403
     20          1           0        0.286070    3.673991    1.271571
     21          1           0        0.393125    2.152472    2.177196
     22          1           0       -1.104417    2.578542    1.329062
     23          1           0       -4.615882   -1.529887   -0.000539
     24          1           0       -3.215466   -2.203862   -0.891993
     25          1           0       -3.216227   -2.203156    0.892630
 ---------------------------------------------------------------------

 SCF Done:  E(RB3LYP) =  -895.887544753     A.U. after   17 cycles

 Excitation energies and oscillator strengths:

 Excited State   1:      Triplet-A      0.8215 eV 1509.17 nm  f=0.0000  <S**2>=2.000
      50 -> 52         0.12160
      51 -> 52         0.74933
      51 -> 53         0.10766
      51 <- 52         0.30468
 This state for optimization and/or second-order correction.
 Total Energy, E(TD-HF/TD-DFT) =  -895.857353662
 Copying the excited state density for this state as the 1-particle RhoCI density.

 Excited State   2:      Singlet-A      2.5714 eV  482.17 nm  f=0.0409  <S**2>=0.000
      51 -> 52         0.69323
      51 -> 53         0.13117

 Excited State   3:      Triplet-A      2.7466 eV  451.41 nm  f=0.0000  <S**2>=2.000
      48 -> 52         0.17414
      50 -> 52        -0.42812
      51 -> 53         0.50520

 Excited State   4:      Triplet-A      3.4539 eV  358.97 nm  f=0.0000  <S**2>=2.000
      49 -> 52         0.67963
      49 -> 53         0.17717

 Excited State   5:      Singlet-A      3.7461 eV  330.97 nm  f=0.0195  <S**2>=0.000
      50 -> 52         0.26840
      51 -> 53         0.64279

 Excited State   6:      Singlet-A      3.8313 eV  323.61 nm  f=0.0007  <S**2>=0.000
      49 -> 52         0.69724
      49 -> 53         0.10896

 The electronic state is 1-A.
 Alpha  occ. eigenvalues --  -88.92421 -14.35501 -14.33817 -10.28477 -10.26038
 Alpha  occ. eigenvalues --  -10.25398 -10.24715 -10.23540 -10.23031 -10.22755
 Alpha  occ. eigenvalues --  -10.21738 -10.19048 -10.19048  -7.98431  -5.94919
 Alpha  occ. eigenvalues --   -5.94492  -5.94032  -0.98747  -0.92237  -0.84387
 Alpha  occ. eigenvalues --   -0.82146  -0.81889  -0.72830  -0.70221  -0.69692
 Alpha  occ. eigenvalues --   -0.66811  -0.62254  -0.60297  -0.53145  -0.50190
 Alpha  occ. eigenvalues --   -0.48653  -0.46608  -0.45557  -0.44813  -0.43799
 Alpha  occ. eigenvalues --   -0.43792  -0.43173  -0.41048  -0.39732  -0.39398
 Alpha  occ. eigenvalues --   -0.38291  -0.37887  -0.37727  -0.36042  -0.35591
 Alpha  occ. eigenvalues --   -0.34967  -0.33758  -0.31387  -0.28456  -0.27339
 Alpha  occ. eigenvalues --   -0.21436
 Alpha virt. eigenvalues --   -0.09888  -0.04602  -0.01866  -0.00385   0.00749
 Alpha virt. eigenvalues --    0.01525   0.02158   0.02173   0.02747   0.03200
 Alpha virt. eigenvalues --    0.03694   0.04625   0.04792   0.05158   0.05254

 Mulliken charges:
               1
     1  C   -0.216828
     2  C    0.999133
     3  C   -0.603624
     4  N   -0.509971
     5  C    0.135918
     6  C   -0.325578
     7  C    0.177872
     8  C   -0.520715
     9  C   -0.520648
    10  C   -0.133862
    11  S    0.327907
    12  C   -0.598584
    13  N   -0.237855
    14  H    0.183286
    15  H    0.164515
    16  H    0.156715
    17  H    0.149436
    18  H    0.157085
    19  H    0.154470
    20  H    0.149429
    21  H    0.157085
    22  H    0.154489
    23  H    0.180351
    24  H    0.209994
    25  H    0.209980
 Sum of Mulliken charges =  -0.00000

 Dipole moment (field-independent basis, Debye):
    X=             -3.8551    Y=             -0.9250    Z=              0.0017  Tot=              3.9645
 Quadrupole moment (field-independent basis, Debye-Ang):
   XX=            -92.6950   YY=            -79.2887   ZZ=            -87.5286
   XY=             -3.1224   XZ=              0.0060   YZ=              0.0006

 Normal termination of Gaussian 16 at Wed Aug 13 15:40:13 2025.
