 Gaussian 16, Revision C.02,
 Gaussian 16:  ES64L-G16RevC.02  7-Dec-2021

 ----------------------------------------------------------
 # td=(50-50,nstates=3) b3lyp/6-31+g(d,p) geom=connectivity
 ----------------------------------------------------------

 -------------------
 Title Card Required
 -------------------
 Symbolic Z-matrix:
 Charge =  0 Multiplicity = 1

                         Standard orientation:
 ---------------------------------------------------------------------
 Center     Atomic      Atomic             Coordinates (Angstroms)
 Number     Number       Type             X           Y           Z
 ---------------------------------------------------------------------
      1          6           0       -3.848168   -1.886755    0.754687
      2          6           0       -3.286599   -0.588216    0.139982
      3          6           0       -3.934366   -0.396259   -1.255081
      4          6           0       -3.685429    0.586428    1.066368
      5          6           0       -1.754716   -0.657881    0.006693
      6          6           0       -1.043635   -1.791051    0.147799
      7          6           0        0.431052   -1.859716   -0.035219
      8          6           0        1.150883   -0.539032   -0.073655
      9          6           0        2.684915   -0.719604   -0.088284
     10          6           0        3.189075   -1.219037    1.207776
     11          7           0        3.558275   -1.583725    2.245777
     12          6           0        3.104183   -1.622925   -1.180735
     13          7           0        3.427726   -2.304064   -2.062459
     14          6           0        0.500799    0.650810   -0.099723
     15          6           0        1.075458    2.090023    0.040286
     16          6           0        1.203142    2.753291   -1.353867
     17          6           0        0.119250    2.930149    0.935747
     18          6           0        2.455888    2.172942    0.744496
     19          6           0       -0.992626    0.563813   -0.384741
     20          8           0       -1.550629    1.497205   -0.958184
     21          1           0       -3.409791   -2.098610    1.736484
     22          1           0       -4.929516   -1.782387    0.889032
     23          1           0       -3.686644   -2.755951    0.107856
     24          1           0       -3.608418    0.534723   -1.720336
     25          1           0       -5.025717   -0.373558   -1.153155
     26          1           0       -3.676212   -1.227797   -1.920609
     27          1           0       -4.774332    0.608135    1.184623
     28          1           0       -3.243867    0.469052    2.062882
     29          1           0       -3.372164    1.548043    0.656120
     30          1           0       -1.532540   -2.735243    0.365520
     31          1           0        0.865055   -2.469402    0.772578
     32          1           0        0.648680   -2.432019   -0.951827
     33          1           0        3.177623    0.232082   -0.280164
     34          1           0        1.608915    3.765645   -1.242217
     35          1           0        1.887924    2.187778   -1.996759
     36          1           0        0.234792    2.817815   -1.850834
     37          1           0        0.545627    3.929675    1.067362
     38          1           0        0.019144    2.479601    1.930280
     39          1           0       -0.870660    3.042697    0.498748
     40          1           0        2.523241    1.528791    1.627094
     41          1           0        3.299747    1.964805    0.078764
     42          1           0        2.607528    3.201117    1.085636
 ---------------------------------------------------------------------

 SCF Done:  E(RB3LYP) =  -845.768543247     A.U. after   17 cycles

 Excitation energies and oscillator strengths:

 Excited State   1:      Triplet-A      2.9961 eV  413.82 nm  f=0.0000  <S**2>=2.000
      73 -> 74         0.68756
 This state for optimization and/or second-order correction.
 Total Energy, E(TD-HF/TD-DFT) =  -845.658440041
 Copying the excited state density for this state as the 1-particle RhoCI density.

 Excited State   2:      Triplet-A      3.2803 eV  377.96 nm  f=0.0000  <S**2>=2.000
      71 -> 74        -0.29148
      71 -> 75        -0.13631
      72 -> 74         0.56322
      72 -> 75        -0.21331
      72 -> 76         0.10246

 Excited State   3:      Triplet-A      3.4316 eV  361.30 nm  f=0.0000  <S**2>=2.000
      71 -> 74         0.56456
      71 -> 75         0.21140
      72 -> 74         0.27700
      72 -> 75        -0.14955

 Excited State   4:      Singlet-A      3.4414 eV  360.28 nm  f=0.0007  <S**2>=0.000
      73 -> 74         0.69772

 Excited State   5:      Singlet-A      4.7377 eV  261.70 nm  f=0.0429  <S**2>=0.000
      71 -> 74         0.27421
      72 -> 74         0.63482

 Excited State   6:      Singlet-A      4.9985 eV  248.04 nm  f=0.0565  <S**2>=0.000
      71 -> 74         0.47846
      71 -> 75        -0.12257
      72 -> 74        -0.13687
      73 -> 75        -0.45867

 The electronic state is 1-A.
 Alpha  occ. eigenvalues --  -19.15768 -14.37762 -14.37742 -10.31319 -10.29884
 Alpha  occ. eigenvalues --  -10.27075 -10.27048 -10.26180 -10.24307 -10.23717
 Alpha  occ. eigenvalues --  -10.23460 -10.22856 -10.22185 -10.22164 -10.20321
 Alpha  occ. eigenvalues --  -10.18867 -10.18861 -10.18693 -10.18163 -10.17858
 Alpha  occ. eigenvalues --   -1.05887  -0.95450  -0.93906  -0.89701  -0.85589
 Alpha  occ. eigenvalues --   -0.84042  -0.81890  -0.76554  -0.74599  -0.70818
 Alpha  occ. eigenvalues --   -0.70031  -0.69773  -0.69095  -0.63795  -0.62799
 Alpha  occ. eigenvalues --   -0.60644  -0.59269  -0.55552  -0.54883  -0.52048
 Alpha  occ. eigenvalues --   -0.50162  -0.49208  -0.47813  -0.47465  -0.45713
 Alpha  occ. eigenvalues --   -0.45432  -0.44740  -0.44260  -0.43309  -0.42943
 Alpha  occ. eigenvalues --   -0.42227  -0.41016  -0.40546  -0.40296  -0.39983
 Alpha  occ. eigenvalues --   -0.39746  -0.38941  -0.38897  -0.37788  -0.37617
 Alpha  occ. eigenvalues --   -0.37311  -0.37129  -0.36526  -0.36378  -0.35689
 Alpha  occ. eigenvalues --   -0.35219  -0.35077  -0.34327  -0.33954  -0.33611
 Alpha  occ. eigenvalues --   -0.29146  -0.28089  -0.26376
 Alpha virt. eigenvalues --   -0.08562  -0.04009  -0.02759  -0.02029  -0.01700
 Alpha virt. eigenvalues --   -0.00390   0.00442   0.00717   0.01286   0.01637
 Alpha virt. eigenvalues --    0.01776   0.02657   0.02807   0.03102   0.03537

 Mulliken charges:
               1
     1  C   -0.474539
     2  C    0.284089
     3  C   -0.512329
     4  C   -0.504266
     5  C    0.129837
     6  C    0.408313
     7  C   -1.037103
     8  C    0.411310
     9  C    1.100691
    10  C   -0.137412
    11  N   -0.366060
    12  C   -0.263416
    13  N   -0.373967
    14  C    0.370712
    15  C    0.179554
    16  C   -0.519897
    17  C   -0.537385
    18  C   -0.426630
    19  C   -0.854790
    20  O   -0.396765
    21  H    0.154006
    22  H    0.152572
    23  H    0.144620
    24  H    0.184374
    25  H    0.142578
    26  H    0.142023
    27  H    0.144269
    28  H    0.144297
    29  H    0.172160
    30  H    0.139211
    31  H    0.185637
    32  H    0.200557
    33  H    0.195947
    34  H    0.147955
    35  H    0.140821
    36  H    0.190165
    37  H    0.144699
    38  H    0.150592
    39  H    0.182018
    40  H    0.168955
    41  H    0.133625
    42  H    0.158973
 Sum of Mulliken charges =  -0.00000

 Dipole moment (field-independent basis, Debye):
    X=             -2.0603    Y=              1.3628    Z=              0.7352  Tot=              2.5774
 Quadrupole moment (field-independent basis, Debye-Ang):
   XX=           -133.5046   YY=           -125.4599   ZZ=           -138.0557
   XY=             18.5935   XZ=             -4.1573   YZ=              0.5583

 Normal termination of Gaussian 16 at Wed Aug 13 15:47:56 2025.
