 Gaussian 16, Revision C.02,
 Gaussian 16:  ES64L-G16RevC.02  7-Dec-2021

 ----------------------------------------------------------
 # td=(50-50,nstates=3) b3lyp/6-31+g(d,p) geom=connectivity
 ----------------------------------------------------------

 -------------------
 Title Card Required
 -------------------
 Symbolic Z-matrix:
 Charge =  0 Multiplicity = 1

                         Standard orientation:
 ---------------------------------------------------------------------
 Center     Atomic      Atomic             Coordinates (Angstroms)
 Number     Number       Type             X           Y           Z
 ---------------------------------------------------------------------
      1          6           0       -5.192487    0.206281    0.002895
      2          6           0       -3.758592    0.748507    0.000374
      3          6           0       -2.663404   -0.310783   -0.000299
      4          6           0       -3.116644   -1.667768   -0.001014
      5          7           0       -3.500765   -2.769445   -0.001665
      6          6           0       -1.290470   -0.111556   -0.000359
      7          6           0       -0.387578   -1.244281   -0.000441
      8          6           0        0.969333   -1.120211   -0.000102
      9          8           0        1.836027   -2.150063    0.000085
     10          6           0        1.342349   -3.490851    0.000010
     11          6           0        1.597825    0.199317    0.000075
     12          6           0        2.978815    0.389032    0.000332
     13          6           0        3.502642    1.719780    0.000391
     14          7           0        3.904008    2.814277    0.000358
     15          6           0        3.980626   -0.628641    0.000535
     16          7           0        4.880793   -1.368863    0.000697
     17          6           0        0.714064    1.330673   -0.000145
     18          6           0       -0.647736    1.208611   -0.000356
     19          8           0       -1.485068    2.267570   -0.000756
     20          6           0       -0.939869    3.591978   -0.001153
     21          1           0       -5.895075    1.045015    0.003466
     22          1           0       -5.401061   -0.404735   -0.880443
     23          1           0       -5.398286   -0.403612    0.887670
     24          1           0       -3.607216    1.398147    0.869366
     25          1           0       -3.609728    1.396641   -0.870242
     26          1           0       -0.830984   -2.230488   -0.000695
     27          1           0        0.744553   -3.685313   -0.897508
     28          1           0        2.229243   -4.123409    0.000669
     29          1           0        0.743510   -3.684997    0.896887
     30          1           0        1.167860    2.311899   -0.000207
     31          1           0       -1.801145    4.259425   -0.001616
     32          1           0       -0.335618    3.764885    0.895612
     33          1           0       -0.335214    3.764162   -0.897784
 ---------------------------------------------------------------------

 SCF Done:  E(RB3LYP) =  -894.068172898     A.U. after   16 cycles

 Excitation energies and oscillator strengths:

 Excited State   1:      Triplet-A      0.9184 eV 1349.93 nm  f=0.0000  <S**2>=2.000
      70 -> 71         0.74397
      70 <- 71         0.25921
 This state for optimization and/or second-order correction.
 Total Energy, E(TD-HF/TD-DFT) =  -894.034420588
 Copying the excited state density for this state as the 1-particle RhoCI density.

 Excited State   2:      Triplet-A      2.0419 eV  607.20 nm  f=0.0000  <S**2>=2.000
      69 -> 71         0.69668

 Excited State   3:      Singlet-A      2.6902 eV  460.88 nm  f=0.0374  <S**2>=0.000
      69 -> 71         0.67220
      70 -> 71         0.20298

 Excited State   4:      Singlet-A      2.9790 eV  416.19 nm  f=0.8845  <S**2>=0.000
      69 -> 71        -0.20171
      70 -> 71         0.68513
      70 <- 71        -0.14727

 Excited State   5:      Triplet-A      3.3124 eV  374.31 nm  f=0.0000  <S**2>=2.000
      68 -> 71         0.58834
      70 -> 72         0.36081

 Excited State   6:      Singlet-A      4.2979 eV  288.47 nm  f=0.0073  <S**2>=0.000
      68 -> 71         0.56362
      70 -> 72        -0.41931

 The electronic state is 1-A.
 Alpha  occ. eigenvalues --  -19.23784 -19.22421 -14.36723 -14.36160 -14.35016
 Alpha  occ. eigenvalues --  -10.31120 -10.30152 -10.28232 -10.27996 -10.27622
 Alpha  occ. eigenvalues --  -10.27554 -10.26750 -10.26714 -10.25712 -10.25552
 Alpha  occ. eigenvalues --  -10.24767 -10.23393 -10.23218 -10.22842 -10.20179
 Alpha  occ. eigenvalues --   -1.12287  -1.11226  -0.93780  -0.93533  -0.91541
 Alpha  occ. eigenvalues --   -0.90705  -0.86957  -0.82785  -0.80518  -0.78313
 Alpha  occ. eigenvalues --   -0.76446  -0.74102  -0.70674  -0.66887  -0.65489
 Alpha  occ. eigenvalues --   -0.63359  -0.59732  -0.58474  -0.56713  -0.54022
 Alpha  occ. eigenvalues --   -0.53060  -0.51626  -0.50619  -0.50292  -0.48837
 Alpha  occ. eigenvalues --   -0.48223  -0.47382  -0.46903  -0.44317  -0.44146
 Alpha  occ. eigenvalues --   -0.41837  -0.41816  -0.40626  -0.39706  -0.39221
 Alpha  occ. eigenvalues --   -0.39139  -0.38961  -0.38611  -0.38143  -0.37589
 Alpha  occ. eigenvalues --   -0.37451  -0.36696  -0.35727  -0.35457  -0.35417
 Alpha  occ. eigenvalues --   -0.34020  -0.33285  -0.32379  -0.26492  -0.23954
 Alpha virt. eigenvalues --   -0.14190  -0.04782  -0.02096  -0.02013  -0.01418
 Alpha virt. eigenvalues --   -0.00554  -0.00236   0.00538   0.00807   0.01556
 Alpha virt. eigenvalues --    0.01802   0.02344   0.02781   0.03011   0.03782

 Mulliken charges:
               1
     1  C   -0.784144
     2  C   -0.034611
     3  C    0.845217
     4  C   -0.806481
     5  N   -0.476944
     6  C    0.939949
     7  C   -0.822670
     8  C    0.067577
     9  O   -0.342685
    10  C   -0.122575
    11  C    0.841508
    12  C    0.909165
    13  C   -0.536848
    14  N   -0.483304
    15  C    0.074544
    16  N   -0.532091
    17  C   -0.641971
    18  C    0.278853
    19  O   -0.372055
    20  C   -0.116566
    21  H    0.151552
    22  H    0.168766
    23  H    0.168728
    24  H    0.182153
    25  H    0.182161
    26  H    0.146994
    27  H    0.155967
    28  H    0.169860
    29  H    0.155936
    30  H    0.148402
    31  H    0.158864
    32  H    0.163375
    33  H    0.163374
 Sum of Mulliken charges =  -0.00000

 Dipole moment (field-independent basis, Debye):
    X=             -6.5384    Y=              2.4470    Z=              0.0004  Tot=              6.9813
 Quadrupole moment (field-independent basis, Debye-Ang):
   XX=           -157.3909   YY=           -115.4334   ZZ=           -117.1204
   XY=            -20.8813   XZ=             -0.0132   YZ=             -0.0099

 Normal termination of Gaussian 16 at Wed Aug 13 15:46:44 2025.
