 Gaussian 16, Revision C.02,
 Gaussian 16:  ES64L-G16RevC.02  7-Dec-2021

 ----------------------------------------------------------
 # td=(50-50,nstates=3) b3lyp/6-31+g(d,p) geom=connectivity
 ----------------------------------------------------------

 -------------------
 Title Card Required
 -------------------
 Symbolic Z-matrix:
 Charge =  0 Multiplicity = 1

                         Standard orientation:
 ---------------------------------------------------------------------
 Center     Atomic      Atomic             Coordinates (Angstroms)
 Number     Number       Type             X           Y           Z
 ---------------------------------------------------------------------
      1          6           0        1.582741   -1.677264    2.481355
      2          6           0        2.140859   -0.933056    1.494280
      3          6           0        3.491547   -1.266816    1.071038
      4          6           0        4.226113   -0.494401    0.241193
      5          6           0        5.662391   -0.844195   -0.182167
      6          6           0        6.045242   -2.270765    0.263824
      7          6           0        5.789058   -0.782892   -1.725245
      8          6           0        6.667258    0.142911    0.466251
      9          6           0        3.616067    0.791044   -0.199104
     10          8           0        4.325764    1.668461   -0.694627
     11          6           0        2.124792    1.021419   -0.036795
     12          6           0        1.560174    2.261523   -0.773229
     13          6           0        0.023682    2.355199   -0.770649
     14          6           0        2.094309    3.543535   -0.076082
     15          6           0        1.982318    2.247565   -2.268745
     16          6           0        1.445421    0.177791    0.798090
     17          6           0        0.002132    0.312622    1.253238
     18          8           0       -0.187958    0.714784    2.385924
     19          6           0       -1.193053   -0.189657    0.451520
     20          6           0       -1.183080   -1.352910   -0.362958
     21          6           0        0.022347   -2.124045   -0.800741
     22          7           0       -2.348991   -1.875104   -0.836974
     23          8           0       -2.357560   -2.954724   -1.539313
     24          6           0       -3.556421   -1.229999   -0.570494
     25          6           0       -4.764305   -1.763068   -1.059568
     26          6           0       -5.950488   -1.103568   -0.810611
     27          6           0       -5.943063    0.100103   -0.069730
     28         17           0       -7.463177    0.912651    0.230387
     29          6           0       -4.772129    0.642239    0.419238
     30          6           0       -3.564140   -0.035274    0.168198
     31          7           0       -2.366007    0.493750    0.673604
     32          8           0       -2.418866    1.609655    1.284151
     33          1           0        2.150836   -2.488372    2.926422
     34          1           0        0.599768   -1.489880    2.892686
     35          1           0        3.903168   -2.177423    1.492788
     36          1           0        7.052264   -2.500782   -0.098257
     37          1           0        6.063099   -2.374354    1.354361
     38          1           0        5.365541   -3.026493   -0.146185
     39          1           0        6.806400   -1.062992   -2.020557
     40          1           0        5.587602    0.219498   -2.105349
     41          1           0        5.097431   -1.486320   -2.203602
     42          1           0        6.600529    0.102681    1.559427
     43          1           0        7.688640   -0.135691    0.181593
     44          1           0        6.483146    1.167925    0.143492
     45          1           0       -0.263808    3.270810   -1.297911
     46          1           0       -0.435460    1.522306   -1.311743
     47          1           0       -0.416746    2.432198    0.226734
     48          1           0        1.699901    4.424336   -0.595870
     49          1           0        3.182638    3.590647   -0.094127
     50          1           0        1.752008    3.587474    0.963591
     51          1           0        1.637333    1.330767   -2.762178
     52          1           0        1.507151    3.092944   -2.778009
     53          1           0        3.059368    2.331759   -2.399450
     54          1           0        0.944565   -1.576011   -0.649087
     55          1           0        0.075836   -3.084706   -0.276002
     56          1           0       -0.096307   -2.365072   -1.861051
     57          1           0       -4.722094   -2.684567   -1.626117
     58          1           0       -6.889121   -1.500762   -1.180011
     59          1           0       -4.744365    1.560837    0.989699
 ---------------------------------------------------------------------

 SCF Done:  E(RB3LYP) =  -1839.43259274     A.U. after   19 cycles

 Excitation energies and oscillator strengths:

 Excited State   1:      Triplet-A      0.7708 eV 1608.47 nm  f=0.0000  <S**2>=2.000
     120 ->121         0.75200
     120 ->123         0.13625
     120 ->125        -0.16265
     120 <-121         0.33503
     120 <-125        -0.10678
 This state for optimization and/or second-order correction.
 Total Energy, E(TD-HF/TD-DFT) =  -1839.40426555
 Copying the excited state density for this state as the 1-particle RhoCI density.

 Excited State   2:      Triplet-A      1.9255 eV  643.92 nm  f=0.0000  <S**2>=2.000
     118 ->122         0.65485
     119 ->122        -0.21894
     118 <-122         0.15013

 Excited State   3:      Triplet-A      2.3997 eV  516.67 nm  f=0.0000  <S**2>=2.000
     117 ->122         0.10835
     118 ->122         0.22622
     119 ->121        -0.11445
     119 ->122         0.62207

 Excited State   4:      Singlet-A      2.6978 eV  459.57 nm  f=0.0166  <S**2>=0.000
     117 ->121        -0.10768
     119 ->121         0.17066
     119 ->122        -0.20624
     120 ->121        -0.38067
     120 ->122         0.49485

 Excited State   5:      Singlet-A      2.7305 eV  454.08 nm  f=0.0287  <S**2>=0.000
     117 ->121         0.17821
     119 ->121        -0.17479
     119 ->122        -0.15209
     120 ->121         0.43423
     120 ->122         0.41882
     120 ->123        -0.16198

 Excited State   6:      Singlet-A      2.7869 eV  444.88 nm  f=0.0029  <S**2>=0.000
     118 ->122         0.15868
     119 ->121        -0.16843
     119 ->122         0.58582
     120 ->122         0.26651

 The electronic state is 1-A.
 Alpha  occ. eigenvalues -- -101.57960 -19.18026 -19.16729 -19.15744 -19.15013
 Alpha  occ. eigenvalues --  -14.52038 -14.50818 -10.32522 -10.29431 -10.29122
 Alpha  occ. eigenvalues --  -10.29044 -10.28955 -10.28673 -10.28472 -10.24659
 Alpha  occ. eigenvalues --  -10.24491 -10.24261 -10.24226 -10.24210 -10.23571
 Alpha  occ. eigenvalues --  -10.22730 -10.22287 -10.22104 -10.22052 -10.21913
 Alpha  occ. eigenvalues --  -10.21315 -10.18700 -10.18120 -10.17821 -10.17603
 Alpha  occ. eigenvalues --  -10.17589 -10.17359  -9.49453  -7.25876  -7.24889
 Alpha  occ. eigenvalues --   -7.24842  -1.15344  -1.13590  -1.08156  -1.05065
 Alpha  occ. eigenvalues --   -0.95656  -0.92451  -0.88798  -0.88017  -0.86908
 Alpha  occ. eigenvalues --   -0.84338  -0.82670  -0.82037  -0.80927  -0.77734
 Alpha  occ. eigenvalues --   -0.77291  -0.74770  -0.73359  -0.69634  -0.69432
 Alpha  occ. eigenvalues --   -0.68810  -0.68707  -0.67889  -0.66986  -0.65551
 Alpha  occ. eigenvalues --   -0.64463  -0.62501  -0.61597  -0.59905  -0.56930
 Alpha  occ. eigenvalues --   -0.56302  -0.54765  -0.53747  -0.53244  -0.52420
 Alpha  occ. eigenvalues --   -0.51312  -0.50498  -0.49737  -0.48838  -0.48796
 Alpha  occ. eigenvalues --   -0.48435  -0.47903  -0.47423  -0.46815  -0.45594
 Alpha  occ. eigenvalues --   -0.45119  -0.44701  -0.44612  -0.44424  -0.44375
 Alpha  occ. eigenvalues --   -0.43851  -0.43569  -0.42780  -0.42319  -0.41865
 Alpha  occ. eigenvalues --   -0.41743  -0.41519  -0.40753  -0.40506  -0.40111
 Alpha  occ. eigenvalues --   -0.39396  -0.38666  -0.38108  -0.37933  -0.37314
 Alpha  occ. eigenvalues --   -0.36888  -0.36090  -0.35549  -0.35210  -0.34728
 Alpha  occ. eigenvalues --   -0.34273  -0.34092  -0.33811  -0.33449  -0.32943
 Alpha  occ. eigenvalues --   -0.31061  -0.30801  -0.30363  -0.28659  -0.28612
 Alpha  occ. eigenvalues --   -0.28235  -0.27352  -0.25779  -0.25400  -0.22817
 Alpha virt. eigenvalues --   -0.12119  -0.10911  -0.08339  -0.05088  -0.03438
 Alpha virt. eigenvalues --   -0.02275  -0.01301  -0.00867  -0.00446  -0.00204
 Alpha virt. eigenvalues --    0.00499   0.00765   0.01544   0.01947   0.02153

 Mulliken charges:
               1
     1  C   -0.373928
     2  C    0.337867
     3  C   -0.569117
     4  C    0.608219
     5  C    0.173583
     6  C   -0.416370
     7  C   -0.577472
     8  C   -0.532796
     9  C   -0.299495
    10  O   -0.412412
    11  C    0.130369
    12  C    0.446439
    13  C   -0.407290
    14  C   -0.529454
    15  C   -0.529264
    16  C    0.109601
    17  C   -0.132023
    18  O   -0.188351
    19  C    0.052018
    20  C    0.324958
    21  C   -0.770259
    22  N   -0.435626
    23  O    0.054633
    24  C   -0.004030
    25  C   -0.540232
    26  C   -0.046939
    27  C    0.349509
    28  Cl   0.276609
    29  C   -0.594681
    30  C    0.306310
    31  N   -0.306145
    32  O    0.156042
    33  H    0.145251
    34  H    0.164631
    35  H    0.130114
    36  H    0.152737
    37  H    0.145202
    38  H    0.151559
    39  H    0.143425
    40  H    0.177789
    41  H    0.141639
    42  H    0.142204
    43  H    0.142247
    44  H    0.184909
    45  H    0.151988
    46  H    0.144220
    47  H    0.190713
    48  H    0.143386
    49  H    0.181354
    50  H    0.153906
    51  H    0.137231
    52  H    0.143129
    53  H    0.182110
    54  H    0.170562
    55  H    0.184894
    56  H    0.193909
    57  H    0.186852
    58  H    0.159966
    59  H    0.193800
 Sum of Mulliken charges =  -0.00000

 Dipole moment (field-independent basis, Debye):
    X=             -0.3247    Y=             -3.2729    Z=             -0.7418  Tot=              3.3716
 Quadrupole moment (field-independent basis, Debye-Ang):
   XX=           -190.6571   YY=           -205.6469   ZZ=           -205.8561
   XY=             -6.9014   XZ=              7.9940   YZ=            -11.3643

 Normal termination of Gaussian 16 at Tue Sep 30 12:48:07 2025.
