 Gaussian 16, Revision C.02,
 Gaussian 16:  ES64L-G16RevC.02  7-Dec-2021

 ----------------------------------------------------------
 # td=(50-50,nstates=3) b3lyp/6-31+g(d,p) geom=connectivity
 ----------------------------------------------------------

 -------------------
 Title Card Required
 -------------------
 Symbolic Z-matrix:
 Charge =  0 Multiplicity = 1

                         Standard orientation:
 ---------------------------------------------------------------------
 Center     Atomic      Atomic             Coordinates (Angstroms)
 Number     Number       Type             X           Y           Z
 ---------------------------------------------------------------------
      1          6           0       -3.372547   -3.389046    0.304374
      2          6           0       -2.773483   -2.011177    0.157171
      3          6           0       -3.596067   -0.879970    0.046185
      4          6           0       -3.042902    0.390359   -0.077977
      5          6           0       -1.654156    0.549435   -0.070549
      6         16           0       -1.052772    2.239165   -0.232099
      7          8           0       -2.071856    3.018126   -0.950018
      8          8           0       -0.515419    2.713794    1.053080
      9          6           0       -0.791898   -0.557326    0.041287
     10          6           0        0.699847   -0.471197    0.019994
     11          6           0        1.414878   -1.172904   -0.968281
     12          6           0        2.806167   -1.159234   -0.992495
     13          6           0        3.513926   -0.439980   -0.014029
     14          6           0        4.949108   -0.426007   -0.030449
     15          7           0        6.112769   -0.418131   -0.045894
     16          6           0        2.810729    0.261069    0.979539
     17          6           0        1.417650    0.244778    0.993891
     18          6           0       -1.386220   -1.827125    0.139622
     19          1           0       -4.171195   -3.553803   -0.426305
     20          1           0       -2.620554   -4.170950    0.169831
     21          1           0       -3.812527   -3.517010    1.300625
     22          1           0       -4.676564   -0.994631    0.043265
     23          1           0       -3.675453    1.262677   -0.204855
     24          1           0        0.012601    2.058696   -1.074086
     25          1           0        0.872361   -1.724467   -1.730076
     26          1           0        3.347737   -1.697552   -1.763052
     27          1           0        3.356038    0.813100    1.737536
     28          1           0        0.885733    0.791799    1.763292
     29          1           0       -0.735189   -2.692994    0.224472
 ---------------------------------------------------------------------

 SCF Done:  E(RB3LYP) =  -1143.46214817     A.U. after   18 cycles

 Excitation energies and oscillator strengths:

 Excited State   1:      Triplet-A      3.2342 eV  383.35 nm  f=0.0000  <S**2>=2.000
      64 -> 68         0.14035
      64 -> 71        -0.13850
      65 -> 70         0.19219
      66 -> 69         0.15431
      67 -> 68         0.58923
 This state for optimization and/or second-order correction.
 Total Energy, E(TD-HF/TD-DFT) =  -1143.34329377
 Copying the excited state density for this state as the 1-particle RhoCI density.

 Excited State   2:      Triplet-A      3.6110 eV  343.35 nm  f=0.0000  <S**2>=2.000
      64 -> 68        -0.30917
      64 -> 71        -0.13765
      65 -> 70        -0.10589
      66 -> 68        -0.22808
      66 -> 69         0.33002
      66 -> 71         0.15773
      67 -> 69        -0.19003
      67 -> 70         0.21685
      67 -> 71         0.21279

 Excited State   3:      Triplet-A      4.1791 eV  296.68 nm  f=0.0000  <S**2>=2.000
      65 -> 68         0.60630
      65 -> 70        -0.15871
      66 -> 68         0.19677
      67 -> 69         0.14640
      67 -> 70         0.13503

 Excited State   4:      Singlet-A      4.6651 eV  265.77 nm  f=0.3894  <S**2>=0.000
      65 -> 68         0.11898
      67 -> 68         0.65984
      67 -> 69        -0.12892

 Excited State   5:      Singlet-A      4.7386 eV  261.65 nm  f=0.0120  <S**2>=0.000
      65 -> 68         0.13921
      66 -> 68         0.55299
      67 -> 68        -0.16937
      67 -> 69        -0.34200

 Excited State   6:      Singlet-A      4.8765 eV  254.25 nm  f=0.0388  <S**2>=0.000
      64 -> 68         0.11468
      65 -> 68         0.51631
      66 -> 68        -0.22859
      67 -> 69        -0.10570
      67 -> 70        -0.28969
      67 -> 71         0.17674

 The electronic state is 1-A.
 Alpha  occ. eigenvalues --  -89.12162 -19.16824 -19.16775 -14.35655 -10.26202
 Alpha  occ. eigenvalues --  -10.25500 -10.25432 -10.24936 -10.24763 -10.24273
 Alpha  occ. eigenvalues --  -10.24054 -10.23846 -10.23605 -10.23584 -10.23107
 Alpha  occ. eigenvalues --  -10.23039 -10.22804 -10.21530  -8.15027  -6.11449
 Alpha  occ. eigenvalues --   -6.11389  -6.11370  -1.12247  -1.02045  -0.92724
 Alpha  occ. eigenvalues --   -0.91395  -0.89382  -0.83393  -0.81581  -0.79067
 Alpha  occ. eigenvalues --   -0.77593  -0.74801  -0.69371  -0.68337  -0.65414
 Alpha  occ. eigenvalues --   -0.63717  -0.61331  -0.58344  -0.56794  -0.52780
 Alpha  occ. eigenvalues --   -0.51652  -0.50932  -0.49672  -0.47952  -0.47483
 Alpha  occ. eigenvalues --   -0.47000  -0.46689  -0.46138  -0.45153  -0.42645
 Alpha  occ. eigenvalues --   -0.42389  -0.41736  -0.40201  -0.39861  -0.38746
 Alpha  occ. eigenvalues --   -0.38124  -0.37459  -0.36656  -0.35121  -0.34825
 Alpha  occ. eigenvalues --   -0.34214  -0.32859  -0.31864  -0.30148  -0.29537
 Alpha  occ. eigenvalues --   -0.28600  -0.27343
 Alpha virt. eigenvalues --   -0.08547  -0.06177  -0.05062  -0.04447  -0.02034
 Alpha virt. eigenvalues --   -0.01100   0.00102   0.00680   0.01093   0.01324
 Alpha virt. eigenvalues --    0.01608   0.01922   0.02539   0.03162   0.03833

 Mulliken charges:
               1
     1  C   -0.492172
     2  C    0.327251
     3  C   -0.027161
     4  C    1.073035
     5  C   -0.617461
     6  S    1.361935
     7  O   -0.507163
     8  O   -0.504399
     9  C   -0.982379
    10  C    0.006770
    11  C    0.033968
    12  C   -0.201255
    13  C    0.376339
    14  C   -0.171091
    15  N   -0.525685
    16  C    0.034134
    17  C   -0.388168
    18  C   -0.385889
    19  H    0.168109
    20  H    0.155320
    21  H    0.176659
    22  H    0.137505
    23  H    0.177380
    24  H    0.025044
    25  H    0.138449
    26  H    0.152305
    27  H    0.156521
    28  H    0.171974
    29  H    0.130124
 Sum of Mulliken charges =  -0.00000

 Dipole moment (field-independent basis, Debye):
    X=             -4.4939    Y=             -5.5256    Z=             -0.8504  Tot=              7.1729
 Quadrupole moment (field-independent basis, Debye-Ang):
   XX=           -139.0900   YY=           -118.9414   ZZ=           -112.0207
   XY=             14.5871   XZ=             -2.3629   YZ=              0.7314

 Normal termination of Gaussian 16 at Wed Aug 13 15:33:48 2025.
