 Gaussian 16, Revision C.02,
 Gaussian 16:  ES64L-G16RevC.02  7-Dec-2021

 ----------------------------------------------------------
 # td=(50-50,nstates=3) b3lyp/6-31+g(d,p) geom=connectivity
 ----------------------------------------------------------

 -------------------
 Title Card Required
 -------------------
 Symbolic Z-matrix:
 Charge =  0 Multiplicity = 1

                         Standard orientation:
 ---------------------------------------------------------------------
 Center     Atomic      Atomic             Coordinates (Angstroms)
 Number     Number       Type             X           Y           Z
 ---------------------------------------------------------------------
      1          6           0        1.788842    2.243368   -1.296407
      2          7           0        1.231118    1.179595   -0.472155
      3          6           0       -0.090640    1.390080    0.126193
      4          6           0       -0.880143    0.064475    0.314503
      5          6           0       -1.148500   -0.597198   -0.999965
      6          6           0       -2.378920   -0.975076   -1.390950
      7          6           0       -3.561972   -0.756657   -0.549520
      8          8           0       -4.690497   -1.128474   -0.882152
      9          6           0       -3.353969   -0.064599    0.758343
     10          7           0       -4.519686    0.168715    1.459882
     11          6           0       -2.106117    0.301574    1.142977
     12          7           0        2.046937    0.447715    0.324535
     13          6           0        3.324194    0.464399    0.189394
     14          6           0        4.152685   -0.422484    1.092595
     15          6           0        4.973316   -1.378530    0.334835
     16          7           0        5.624831   -2.117850   -0.279925
     17          1           0        2.472520    1.828057   -2.044209
     18          1           0        0.976303    2.741910   -1.825870
     19          1           0        2.338345    2.988738   -0.697043
     20          1           0       -0.000342    1.890978    1.101661
     21          1           0       -0.654625    2.049727   -0.537609
     22          1           0       -0.195041   -0.597748    0.870920
     23          1           0       -0.288194   -0.770664   -1.641677
     24          1           0       -2.557567   -1.467020   -2.342613
     25          1           0       -4.460177    0.297683    2.458415
     26          1           0       -5.317306   -0.359686    1.127964
     27          1           0       -1.960432    0.795592    2.102851
     28          1           0        3.858400    1.060149   -0.551865
     29          1           0        4.830628    0.179021    1.713290
     30          1           0        3.486421   -0.972272    1.764639
 ---------------------------------------------------------------------

 SCF Done:  E(RB3LYP) =  -721.794807952     A.U. after   16 cycles

 Excitation energies and oscillator strengths:

 Excited State   1:      Triplet-A      2.4312 eV  509.97 nm  f=0.0000  <S**2>=2.000
      58 -> 59         0.66607
      58 -> 62        -0.18433
 This state for optimization and/or second-order correction.
 Total Energy, E(TD-HF/TD-DFT) =  -721.705463181
 Copying the excited state density for this state as the 1-particle RhoCI density.

 Excited State   2:      Triplet-A      3.1893 eV  388.75 nm  f=0.0000  <S**2>=2.000
      56 -> 59         0.68940

 Excited State   3:      Triplet-A      3.3477 eV  370.36 nm  f=0.0000  <S**2>=2.000
      55 -> 59         0.62632
      55 -> 62         0.18054
      57 -> 59         0.19068

 Excited State   4:      Singlet-A      3.5144 eV  352.79 nm  f=0.0555  <S**2>=0.000
      58 -> 59         0.69632

 Excited State   5:      Singlet-A      3.6751 eV  337.36 nm  f=0.0006  <S**2>=0.000
      56 -> 59         0.69147
      57 -> 59        -0.11605

 Excited State   6:      Singlet-A      3.9844 eV  311.18 nm  f=0.0067  <S**2>=0.000
      56 -> 59         0.11709
      57 -> 59         0.69553

 The electronic state is 1-A.
 Alpha  occ. eigenvalues --  -19.14543 -14.40719 -14.39693 -14.35144 -14.34924
 Alpha  occ. eigenvalues --  -10.28088 -10.25459 -10.25058 -10.24812 -10.24378
 Alpha  occ. eigenvalues --  -10.24332 -10.24287 -10.22413 -10.22209 -10.20680
 Alpha  occ. eigenvalues --  -10.20287  -1.04195  -1.04055  -0.92399  -0.91782
 Alpha  occ. eigenvalues --   -0.88480  -0.85140  -0.79480  -0.77588  -0.75291
 Alpha  occ. eigenvalues --   -0.72041  -0.67557  -0.62463  -0.61265  -0.58273
 Alpha  occ. eigenvalues --   -0.55514  -0.53653  -0.53085  -0.52188  -0.50803
 Alpha  occ. eigenvalues --   -0.49401  -0.48134  -0.47330  -0.46111  -0.45759
 Alpha  occ. eigenvalues --   -0.44353  -0.43623  -0.42886  -0.41913  -0.41503
 Alpha  occ. eigenvalues --   -0.39445  -0.38750  -0.37716  -0.37163  -0.35905
 Alpha  occ. eigenvalues --   -0.34283  -0.34155  -0.33789  -0.30423  -0.28162
 Alpha  occ. eigenvalues --   -0.26294  -0.24322  -0.22304
 Alpha virt. eigenvalues --   -0.07317  -0.03370  -0.01139  -0.00989  -0.00039
 Alpha virt. eigenvalues --    0.00126   0.01090   0.01339   0.01744   0.01929
 Alpha virt. eigenvalues --    0.02641   0.03424   0.03765   0.04131   0.04393

 Mulliken charges:
               1
     1  C   -0.243095
     2  N    0.262324
     3  C   -0.606521
     4  C    0.302916
     5  C   -0.212664
     6  C    0.114251
     7  C   -0.061226
     8  O   -0.519043
     9  C    0.837249
    10  N   -0.640519
    11  C   -0.845078
    12  N   -0.244944
    13  C   -0.084985
    14  C   -0.346575
    15  C    0.326934
    16  N   -0.511785
    17  H    0.156350
    18  H    0.155752
    19  H    0.151538
    20  H    0.141661
    21  H    0.143829
    22  H    0.193735
    23  H    0.145105
    24  H    0.140829
    25  H    0.287034
    26  H    0.320906
    27  H    0.109996
    28  H    0.128798
    29  H    0.195291
    30  H    0.201936
 Sum of Mulliken charges =  -0.00000

 Dipole moment (field-independent basis, Debye):
    X=              0.8260    Y=              4.9809    Z=              2.7501  Tot=              5.7493
 Quadrupole moment (field-independent basis, Debye-Ang):
   XX=           -131.6656   YY=           -100.9316   ZZ=            -87.3584
   XY=             15.1999   XZ=             -4.4214   YZ=             -5.2717

 Normal termination of Gaussian 16 at Wed Aug 13 15:32:20 2025.
