 Gaussian 16, Revision C.02,
 Gaussian 16:  ES64L-G16RevC.02  7-Dec-2021

 ----------------------------------------------------------
 # td=(50-50,nstates=3) b3lyp/6-31+g(d,p) geom=connectivity
 ----------------------------------------------------------

 -------------------
 Title Card Required
 -------------------
 Symbolic Z-matrix:
 Charge =  0 Multiplicity = 1

                         Standard orientation:
 ---------------------------------------------------------------------
 Center     Atomic      Atomic             Coordinates (Angstroms)
 Number     Number       Type             X           Y           Z
 ---------------------------------------------------------------------
      1          6           0        6.713537    1.355299   -0.110971
      2          6           0        6.365916   -0.127362   -0.090531
      3          6           0        4.878476   -0.291383   -0.048657
      4          6           0        4.053020    0.832853   -0.034381
      5          6           0        2.667109    0.679974    0.004734
      6          6           0        2.106762   -0.597094    0.029448
      7          6           0        0.778332   -0.743620    0.066868
      8          6           0        0.241229   -1.967794    0.090563
      9          6           0       -1.087232   -2.114184    0.128010
     10          6           0       -1.653487   -3.156805    0.861467
     11          6           0       -3.039371   -3.309586    0.900484
     12          6           0       -3.858951   -2.419772    0.206236
     13          6           0       -3.292723   -1.377250   -0.527123
     14         17           0       -4.302870   -0.280562   -1.382766
     15          6           0       -1.906730   -1.224420   -0.566266
     16          6           0       -0.012890    0.333965    0.080663
     17          6           0       -0.970813    0.482976    1.083472
     18          6           0       -1.796428    1.607189    1.097681
     19          6           0       -1.663936    2.582402    0.109244
     20          6           0       -2.549905    3.788941    0.124630
     21          6           0       -3.498921    3.707729    1.313085
     22          6           0       -0.705937    2.433464   -0.893470
     23          6           0        0.119601    1.309177   -0.907773
     24          6           0        2.932194   -1.721318    0.015076
     25          6           0        4.318130   -1.568451   -0.023943
     26          1           0        7.819340    1.477248   -0.142123
     27          1           0        6.263065    1.829003   -1.011783
     28          1           0        6.312298    1.842919    0.805580
     29          1           0        6.816337   -0.601152    0.810283
     30          1           0        6.767156   -0.614983   -1.007082
     31          1           0        4.494991    1.839972   -0.054069
     32          1           0        2.016116    1.566494    0.016005
     33          1           0        0.892198   -2.854302    0.079196
     34          1           0       -1.007041   -3.858487    1.409125
     35          1           0       -3.485939   -4.131841    1.478909
     36          1           0       -4.951888   -2.540272    0.237097
     37          1           0       -1.460214   -0.402251   -1.144689
     38          1           0       -1.075317   -0.286001    1.863023
     39          1           0       -2.552007    1.724783    1.888530
     40          1           0       -1.925401    4.706072    0.211245
     41          1           0       -3.139440    3.828141   -0.818585
     42          1           0       -4.157681    4.604792    1.324515
     43          1           0       -4.123425    2.790598    1.226470
     44          1           0       -2.909361    3.668517    2.256396
     45          1           0       -0.601439    3.202564   -1.672899
     46          1           0        0.875098    1.191633   -1.698595
     47          1           0        2.490231   -2.728449    0.034448
     48          1           0        4.969205   -2.455022   -0.035241
 ---------------------------------------------------------------------

 SCF Done:  E(RB3LYP) =  -1388.56090263     A.U. after   17 cycles

 Excitation energies and oscillator strengths:

 Excited State   1:      Triplet-A      1.7891 eV  692.99 nm  f=0.0000  <S**2>=2.000
      92 -> 93         0.69168
      92 <- 93         0.10883
 This state for optimization and/or second-order correction.
 Total Energy, E(TD-HF/TD-DFT) =  -1388.49515384
 Copying the excited state density for this state as the 1-particle RhoCI density.

 Excited State   2:      Singlet-A      2.9495 eV  420.35 nm  f=0.2522  <S**2>=0.000
      91 -> 93        -0.13151
      92 -> 93         0.68721

 Excited State   3:      Triplet-A      3.0793 eV  402.64 nm  f=0.0000  <S**2>=2.000
      90 -> 93        -0.16406
      91 -> 93         0.45864
      91 -> 95        -0.11223
      92 -> 95         0.31777
      92 -> 96         0.19980

 Excited State   4:      Triplet-A      3.2974 eV  376.00 nm  f=0.0000  <S**2>=2.000
      91 -> 94        -0.14129
      92 -> 94         0.61605
      92 -> 95        -0.13854

 Excited State   5:      Singlet-A      3.6242 eV  342.10 nm  f=0.0133  <S**2>=0.000
      90 -> 93        -0.11317
      91 -> 93        -0.30101
      92 -> 94         0.61985

 Excited State   6:      Singlet-A      3.7926 eV  326.91 nm  f=0.0471  <S**2>=0.000
      91 -> 93         0.49412
      92 -> 94         0.26696
      92 -> 95        -0.39111

 The electronic state is 1-A.
 Alpha  occ. eigenvalues -- -101.55043 -10.24604 -10.20059 -10.19973 -10.19879
 Alpha  occ. eigenvalues --  -10.19817 -10.19587 -10.19490 -10.19484 -10.19432
 Alpha  occ. eigenvalues --  -10.19407 -10.19397 -10.19364 -10.19332 -10.19318
 Alpha  occ. eigenvalues --  -10.19208 -10.19018 -10.18997 -10.18826 -10.18750
 Alpha  occ. eigenvalues --  -10.18737 -10.18655 -10.18482 -10.17911 -10.17706
 Alpha  occ. eigenvalues --   -9.46565  -7.22958  -7.22014  -7.21973  -0.91502
 Alpha  occ. eigenvalues --   -0.89185  -0.86660  -0.85536  -0.83458  -0.80066
 Alpha  occ. eigenvalues --   -0.79195  -0.76389  -0.75357  -0.75041  -0.73625
 Alpha  occ. eigenvalues --   -0.72694  -0.70324  -0.66522  -0.64639  -0.62947
 Alpha  occ. eigenvalues --   -0.61863  -0.60963  -0.59757  -0.58020  -0.57526
 Alpha  occ. eigenvalues --   -0.55291  -0.53266  -0.51443  -0.49905  -0.48180
 Alpha  occ. eigenvalues --   -0.47801  -0.47120  -0.46161  -0.45995  -0.45845
 Alpha  occ. eigenvalues --   -0.45388  -0.45019  -0.44506  -0.43367  -0.42990
 Alpha  occ. eigenvalues --   -0.42451  -0.41692  -0.40678  -0.39779  -0.39052
 Alpha  occ. eigenvalues --   -0.38106  -0.37915  -0.37441  -0.37061  -0.36611
 Alpha  occ. eigenvalues --   -0.36263  -0.36102  -0.35756  -0.34551  -0.34279
 Alpha  occ. eigenvalues --   -0.33847  -0.33613  -0.33411  -0.32356  -0.31038
 Alpha  occ. eigenvalues --   -0.30623  -0.27716  -0.25776  -0.25416  -0.24754
 Alpha  occ. eigenvalues --   -0.23032  -0.19176
 Alpha virt. eigenvalues --   -0.06727  -0.03101  -0.02179  -0.01404  -0.00259
 Alpha virt. eigenvalues --   -0.00106   0.00543   0.00678   0.00833   0.01547
 Alpha virt. eigenvalues --    0.01638   0.02276   0.02571   0.02792   0.03370

 Mulliken charges:
               1
     1  C   -0.583806
     2  C   -0.192476
     3  C    0.632645
     4  C   -0.837336
     5  C   -0.235720
     6  C    0.199120
     7  C    0.325216
     8  C   -0.264547
     9  C   -0.159312
    10  C   -0.477032
    11  C    0.192261
    12  C   -0.199247
    13  C    0.126434
    14  Cl   0.194692
    15  C   -0.327210
    16  C   -0.000249
    17  C   -0.396201
    18  C   -0.635857
    19  C    0.227376
    20  C   -0.449750
    21  C   -0.581768
    22  C    0.677748
    23  C   -0.811808
    24  C    0.106051
    25  C    0.293067
    26  H    0.140637
    27  H    0.153654
    28  H    0.154557
    29  H    0.157758
    30  H    0.157446
    31  H    0.118508
    32  H    0.145347
    33  H    0.096122
    34  H    0.118607
    35  H    0.127673
    36  H    0.136863
    37  H    0.166165
    38  H    0.137578
    39  H    0.111878
    40  H    0.154791
    41  H    0.158997
    42  H    0.140369
    43  H    0.158310
    44  H    0.151163
    45  H    0.118796
    46  H    0.145185
    47  H    0.106111
    48  H    0.121192
 Sum of Mulliken charges =  -0.00000

 Dipole moment (field-independent basis, Debye):
    X=              1.9233    Y=              0.3430    Z=              0.8159  Tot=              2.1172
 Quadrupole moment (field-independent basis, Debye-Ang):
   XX=           -151.0773   YY=           -145.6649   ZZ=           -159.3789
   XY=             -2.9787   XZ=             -6.1320   YZ=             -5.4346

 Normal termination of Gaussian 16 at Tue Sep 30 12:24:29 2025.
