 Gaussian 16, Revision C.02,
 Gaussian 16:  ES64L-G16RevC.02  7-Dec-2021

 ----------------------------------------------------------
 # td=(50-50,nstates=3) b3lyp/6-31+g(d,p) geom=connectivity
 ----------------------------------------------------------

 -------------------
 Title Card Required
 -------------------
 Symbolic Z-matrix:
 Charge =  0 Multiplicity = 1

                         Standard orientation:
 ---------------------------------------------------------------------
 Center     Atomic      Atomic             Coordinates (Angstroms)
 Number     Number       Type             X           Y           Z
 ---------------------------------------------------------------------
      1          6           0       -0.770383    4.139458   -1.435336
      2          8           0       -0.210118    4.515534   -0.167912
      3          6           0        0.494694    3.672269    0.620268
      4          8           0        0.932219    4.088025    1.667607
      5          6           0        0.725466    2.219521    0.143586
      6          6           0        1.762956    1.558028    1.086755
      7          6           0        2.167503    0.171297    0.645757
      8          6           0        3.040946   -0.030688   -0.426994
      9          9           0        3.526137    1.039741   -1.094484
     10          6           0        3.442608   -1.294998   -0.847648
     11          9           0        4.282310   -1.437632   -1.884211
     12          6           0        2.962417   -2.419901   -0.179849
     13          9           0        3.335771   -3.644569   -0.571578
     14          6           0        2.092560   -2.262501    0.896025
     15          9           0        1.630060   -3.341648    1.543100
     16          6           0        1.708564   -0.981310    1.290157
     17          9           0        0.873771   -0.877017    2.339399
     18          7           0       -0.537704    1.497281    0.196413
     19          6           0       -0.840623    0.731901   -0.784979
     20          6           0       -2.046021   -0.069078   -0.813611
     21          6           0       -2.458816   -0.906960   -1.831110
     22          6           0       -3.691615   -1.559726   -1.564830
     23          6           0       -4.194128   -1.200283   -0.338479
     24         17           0       -5.668248   -1.763619    0.365267
     25         16           0       -3.185328   -0.069084    0.516199
     26          1           0       -1.113823    5.073541   -1.880316
     27          1           0       -0.020990    3.686852   -2.091964
     28          1           0       -1.616022    3.461990   -1.301788
     29          1           0        1.141526    2.241745   -0.877822
     30          1           0        2.644817    2.202507    1.126040
     31          1           0        1.342718    1.522236    2.091818
     32          1           0       -0.203180    0.639235   -1.679246
     33          1           0       -1.888059   -1.047948   -2.742885
     34          1           0       -4.183621   -2.254780   -2.233314
 ---------------------------------------------------------------------

 SCF Done:  E(RB3LYP) =  -2139.79350432     A.U. after   16 cycles

 Excitation energies and oscillator strengths:

 Excited State   1:      Triplet-A      2.4702 eV  501.92 nm  f=0.0000  <S**2>=2.000
     100 ->101         0.68740
     100 <-101         0.10271
 This state for optimization and/or second-order correction.
 Total Energy, E(TD-HF/TD-DFT) =  -2139.70272623
 Copying the excited state density for this state as the 1-particle RhoCI density.

 Excited State   2:      Triplet-A      3.6984 eV  335.24 nm  f=0.0000  <S**2>=2.000
      95 ->101         0.16423
      96 ->102        -0.33307
      98 ->101        -0.21808
      98 ->102         0.28900
      98 ->104         0.11044
      99 ->104         0.42066

 Excited State   3:      Triplet-A      3.7160 eV  333.65 nm  f=0.0000  <S**2>=2.000
      95 ->101         0.38266
      96 ->101        -0.32746
      96 ->102         0.14681
      98 ->101        -0.33871
      98 ->102        -0.12431
      99 ->101         0.12276
      99 ->104        -0.18594

 Excited State   4:      Singlet-A      4.0827 eV  303.68 nm  f=0.4264  <S**2>=0.000
      98 ->101        -0.16159
     100 ->101         0.67109

 Excited State   5:      Singlet-A      4.2696 eV  290.39 nm  f=0.0380  <S**2>=0.000
      95 ->101        -0.33870
      96 ->101         0.33678
      98 ->101         0.45624
      99 ->101        -0.16593
     100 ->101         0.15821

 Excited State   6:      Singlet-A      4.5688 eV  271.37 nm  f=0.0007  <S**2>=0.000
      98 ->101         0.20939
      99 ->101         0.67274

 The electronic state is 1-A.
 Alpha  occ. eigenvalues -- -101.58905 -88.94887 -24.77062 -24.76820 -24.76697
 Alpha  occ. eigenvalues --  -24.76565 -24.75996 -19.21423 -19.15602 -14.36709
 Alpha  occ. eigenvalues --  -10.33712 -10.33298 -10.32861 -10.32721 -10.32691
 Alpha  occ. eigenvalues --  -10.32577 -10.30277 -10.27640 -10.26676 -10.26550
 Alpha  occ. eigenvalues --  -10.25659 -10.25653 -10.23909 -10.23226 -10.22852
 Alpha  occ. eigenvalues --   -9.50373  -8.00714  -7.26822  -7.25785  -7.25761
 Alpha  occ. eigenvalues --   -5.97159  -5.96778  -5.96396  -1.28712  -1.27947
 Alpha  occ. eigenvalues --   -1.27353  -1.26620  -1.26225  -1.11802  -1.03750
 Alpha  occ. eigenvalues --   -0.96751  -0.93551  -0.92598  -0.87922  -0.83979
 Alpha  occ. eigenvalues --   -0.80242  -0.79751  -0.77363  -0.75436  -0.74982
 Alpha  occ. eigenvalues --   -0.71224  -0.68547  -0.66503  -0.64522  -0.61650
 Alpha  occ. eigenvalues --   -0.61417  -0.59556  -0.59181  -0.58024  -0.57163
 Alpha  occ. eigenvalues --   -0.56849  -0.56124  -0.55115  -0.54637  -0.54042
 Alpha  occ. eigenvalues --   -0.53190  -0.51827  -0.51647  -0.50715  -0.49502
 Alpha  occ. eigenvalues --   -0.48982  -0.48697  -0.48452  -0.46829  -0.46519
 Alpha  occ. eigenvalues --   -0.46198  -0.46049  -0.44819  -0.44557  -0.43782
 Alpha  occ. eigenvalues --   -0.43655  -0.42982  -0.42580  -0.41543  -0.41396
 Alpha  occ. eigenvalues --   -0.40846  -0.39921  -0.38696  -0.38258  -0.37378
 Alpha  occ. eigenvalues --   -0.36225  -0.34293  -0.33774  -0.31512  -0.30222
 Alpha  occ. eigenvalues --   -0.28978  -0.28873  -0.28271  -0.28076  -0.25297
 Alpha virt. eigenvalues --   -0.09221  -0.05128  -0.04635  -0.04057  -0.02142
 Alpha virt. eigenvalues --   -0.01989  -0.01345  -0.00782  -0.00409  -0.00216
 Alpha virt. eigenvalues --    0.00482   0.01032   0.01821   0.01978   0.02653

 Mulliken charges:
               1
     1  C   -0.119037
     2  O   -0.279081
     3  C    0.556182
     4  O   -0.410585
     5  C   -0.182842
     6  C    0.162292
     7  C    0.444817
     8  C   -0.216219
     9  F   -0.330754
    10  C    0.304082
    11  F   -0.340729
    12  C    0.509519
    13  F   -0.330826
    14  C    0.248214
    15  F   -0.335083
    16  C   -0.042011
    17  F   -0.324222
    18  N    0.120275
    19  C   -0.274442
    20  C   -0.448097
    21  C   -0.135335
    22  C   -0.302928
    23  C   -0.138222
    24  Cl   0.248431
    25  S    0.239042
    26  H    0.160240
    27  H    0.140293
    28  H    0.167535
    29  H    0.123555
    30  H    0.184936
    31  H    0.196945
    32  H    0.106621
    33  H    0.141431
    34  H    0.156003
 Sum of Mulliken charges =  -0.00000

 Dipole moment (field-independent basis, Debye):
    X=             -1.5373    Y=             -1.2830    Z=             -5.0307  Tot=              5.4145
 Quadrupole moment (field-independent basis, Debye-Ang):
   XX=           -157.0869   YY=           -174.5634   ZZ=           -154.2091
   XY=              1.7056   XZ=              8.8676   YZ=            -12.0364

 Normal termination of Gaussian 16 at Tue Sep 30 12:16:44 2025.
