 Gaussian 16, Revision C.02,
 Gaussian 16:  ES64L-G16RevC.02  7-Dec-2021

 ----------------------------------------------------------
 # td=(50-50,nstates=3) b3lyp/6-31+g(d,p) geom=connectivity
 ----------------------------------------------------------

 -------------------
 Title Card Required
 -------------------
 Symbolic Z-matrix:
 Charge =  0 Multiplicity = 1

                         Standard orientation:
 ---------------------------------------------------------------------
 Center     Atomic      Atomic             Coordinates (Angstroms)
 Number     Number       Type             X           Y           Z
 ---------------------------------------------------------------------
      1          6           0       -0.621100    1.170284    2.757272
      2          6           0       -0.819011    1.407838    1.447910
      3          6           0       -0.366331    2.644048    0.860197
      4          7           0        0.018565    3.623907    0.365142
      5          6           0       -1.465197    0.450024    0.531003
      6          6           0       -1.216521   -0.842688    0.255175
      7          6           0       -0.125261   -1.724963    0.798771
      8          6           0       -0.672375   -3.068590    1.316981
      9          6           0        0.991476   -1.979279   -0.250091
     10          7           0        1.714271   -0.778455   -0.634005
     11          6           0        1.623405   -0.153105   -1.954331
     12          6           0        2.456861    1.138115   -1.793635
     13          6           0        3.438716    0.811977   -0.654075
     14          6           0        2.756862   -0.308120    0.124446
     15          8           0        3.074735   -0.753910    1.223160
     16          6           0       -2.212483   -1.261432   -0.799771
     17          6           0       -2.999683    0.014087   -1.069600
     18          8           0       -3.900835    0.216120   -1.836524
     19          8           0       -2.506608    0.998834   -0.232841
     20          1           0       -0.978441    0.254484    3.214371
     21          1           0       -0.098661    1.883399    3.385068
     22          1           0        0.361539   -1.208083    1.630230
     23          1           0        0.130257   -3.654046    1.776125
     24          1           0       -1.451041   -2.914203    2.070690
     25          1           0       -1.103306   -3.670365    0.507970
     26          1           0        1.706654   -2.682820    0.191121
     27          1           0        0.578685   -2.441380   -1.154010
     28          1           0        0.581809    0.055651   -2.219597
     29          1           0        2.040611   -0.820020   -2.724656
     30          1           0        2.952112    1.419743   -2.725843
     31          1           0        1.802977    1.964038   -1.499188
     32          1           0        3.659650    1.657166    0.001430
     33          1           0        4.396891    0.424443   -1.022743
     34          1           0       -1.759549   -1.618236   -1.732543
     35          1           0       -2.904503   -2.045460   -0.468270
 ---------------------------------------------------------------------

 SCF Done:  E(RB3LYP) =  -878.327765987     A.U. after   16 cycles

 Excitation energies and oscillator strengths:

 Excited State   1:      Triplet-A      2.8432 eV  436.08 nm  f=0.0000  <S**2>=2.000
      65 -> 70        -0.29376
      66 -> 70         0.11806
      67 -> 70         0.38701
      68 -> 70         0.20838
      69 -> 70         0.40836
 This state for optimization and/or second-order correction.
 Total Energy, E(TD-HF/TD-DFT) =  -878.223282079
 Copying the excited state density for this state as the 1-particle RhoCI density.

 Excited State   2:      Triplet-A      3.6418 eV  340.44 nm  f=0.0000  <S**2>=2.000
      65 -> 70         0.46810
      66 -> 70        -0.22856
      67 -> 71         0.24674
      68 -> 71         0.12860
      69 -> 70         0.13725
      69 -> 71         0.23751

 Excited State   3:      Singlet-A      3.9443 eV  314.34 nm  f=0.0363  <S**2>=0.000
      69 -> 70         0.70121

 Excited State   4:      Triplet-A      4.0124 eV  309.00 nm  f=0.0000  <S**2>=2.000
      67 -> 70        -0.35148
      68 -> 70        -0.25449
      69 -> 70         0.54320

 Excited State   5:      Singlet-A      4.1482 eV  298.89 nm  f=0.0075  <S**2>=0.000
      68 -> 70         0.70269

 Excited State   6:      Singlet-A      4.2543 eV  291.43 nm  f=0.0247  <S**2>=0.000
      67 -> 70         0.69456

 The electronic state is 1-A.
 Alpha  occ. eigenvalues --  -19.23241 -19.17149 -19.13013 -14.38084 -14.36216
 Alpha  occ. eigenvalues --  -10.34749 -10.29511 -10.28952 -10.27609 -10.25375
 Alpha  occ. eigenvalues --  -10.24690 -10.24680 -10.24547 -10.24107 -10.23517
 Alpha  occ. eigenvalues --  -10.22926 -10.20845 -10.20754 -10.20580  -1.14056
 Alpha  occ. eigenvalues --   -1.06138  -1.04664  -0.96126  -0.92958  -0.87255
 Alpha  occ. eigenvalues --   -0.84972  -0.82094  -0.78723  -0.75070  -0.73149
 Alpha  occ. eigenvalues --   -0.70895  -0.68739  -0.64940  -0.62505  -0.61964
 Alpha  occ. eigenvalues --   -0.58369  -0.56484  -0.54967  -0.52321  -0.51639
 Alpha  occ. eigenvalues --   -0.50568  -0.50059  -0.48872  -0.47313  -0.46359
 Alpha  occ. eigenvalues --   -0.45705  -0.44517  -0.43749  -0.43578  -0.43426
 Alpha  occ. eigenvalues --   -0.42668  -0.41759  -0.41485  -0.40432  -0.40085
 Alpha  occ. eigenvalues --   -0.39460  -0.38648  -0.38181  -0.37742  -0.37396
 Alpha  occ. eigenvalues --   -0.37220  -0.36485  -0.35424  -0.34350  -0.31222
 Alpha  occ. eigenvalues --   -0.30067  -0.26671  -0.26217  -0.25547
 Alpha virt. eigenvalues --   -0.08650  -0.04170  -0.02018  -0.00982  -0.00581
 Alpha virt. eigenvalues --    0.00260   0.00506   0.00863   0.01440   0.02074
 Alpha virt. eigenvalues --    0.02160   0.02732   0.02943   0.03639   0.04416

 Mulliken charges:
               1
     1  C   -0.108993
     2  C   -0.044477
     3  C   -0.426139
     4  N   -0.430112
     5  C   -0.121636
     6  C    0.536838
     7  C    0.829175
     8  C   -0.755579
     9  C   -0.803935
    10  N    0.100967
    11  C   -0.052072
    12  C   -0.426400
    13  C   -0.178250
    14  C    0.194803
    15  O   -0.486379
    16  C   -0.397150
    17  C    0.619443
    18  O   -0.457006
    19  O   -0.216055
    20  H    0.157685
    21  H    0.167471
    22  H    0.164774
    23  H    0.163028
    24  H    0.154398
    25  H    0.149964
    26  H    0.171944
    27  H    0.135933
    28  H    0.141276
    29  H    0.143372
    30  H    0.150163
    31  H    0.184160
    32  H    0.177256
    33  H    0.171331
    34  H    0.189496
    35  H    0.200710
 Sum of Mulliken charges =  -0.00000

 Dipole moment (field-independent basis, Debye):
    X=              0.9514    Y=             -4.7400    Z=              0.2914  Tot=              4.8433
 Quadrupole moment (field-independent basis, Debye-Ang):
   XX=           -132.7121   YY=           -121.9468   ZZ=           -107.0071
   XY=             10.8739   XZ=            -20.4030   YZ=              5.7579

 Normal termination of Gaussian 16 at Wed Aug 13 15:35:00 2025.
