 Gaussian 16, Revision C.02,
 Gaussian 16:  ES64L-G16RevC.02  7-Dec-2021

 ----------------------------------------------------------
 # td=(50-50,nstates=3) b3lyp/6-31+g(d,p) geom=connectivity
 ----------------------------------------------------------

 -------------------
 Title Card Required
 -------------------
 Symbolic Z-matrix:
 Charge =  0 Multiplicity = 1

                         Standard orientation:
 ---------------------------------------------------------------------
 Center     Atomic      Atomic             Coordinates (Angstroms)
 Number     Number       Type             X           Y           Z
 ---------------------------------------------------------------------
      1          6           0        4.506238    1.828467   -1.547558
      2          6           0        3.334521    1.469031   -0.974486
      3          6           0        2.139690    2.238528   -1.197564
      4          7           0        1.178883    2.866130   -1.384168
      5          6           0        3.243932    0.302682   -0.123933
      6          6           0        2.371107   -0.417355    0.627106
      7          6           0        0.934509   -0.465032    1.056361
      8          6           0        0.546628    0.778853    1.884146
      9          6           0       -0.015203   -0.709407   -0.150194
     10         14           0       -1.816469   -1.179682    0.267839
     11          6           0       -2.811668    0.318514    0.620512
     12          6           0       -3.472831    1.323872    0.824349
     13          6           0       -4.253626    2.540277    1.053450
     14          6           0       -4.259338    3.495080   -0.156887
     15          6           0       -2.608721   -2.160061   -1.163722
     16          6           0       -1.860567   -3.479099   -1.442531
     17          6           0       -4.106489   -2.422941   -0.912676
     18          6           0        3.537929   -1.302040    0.920012
     19          8           0        3.842213   -2.282128    1.518987
     20          8           0        4.412044   -0.480459    0.100657
     21          1           0        5.398041    1.238355   -1.371035
     22          1           0        4.573421    2.702050   -2.185487
     23          1           0        0.867165   -1.337844    1.718715
     24          1           0       -0.463852    0.671284    2.288276
     25          1           0        1.236770    0.918375    2.722186
     26          1           0        0.561587    1.683042    1.268075
     27          1           0       -0.027799    0.177036   -0.796996
     28          1           0        0.392569   -1.528672   -0.756643
     29          1           0       -5.283810    2.260484    1.310233
     30          1           0       -3.850446    3.060646    1.932252
     31          1           0       -4.851952    4.386996    0.070350
     32          1           0       -3.243043    3.809734   -0.410160
     33          1           0       -4.692391    3.007900   -1.035378
     34          1           0       -2.522101   -1.520780   -2.055773
     35          1           0       -2.321840   -4.014682   -2.282073
     36          1           0       -0.807489   -3.320363   -1.699168
     37          1           0       -1.893990   -4.147978   -0.573628
     38          1           0       -4.555329   -2.950359   -1.764361
     39          1           0       -4.664383   -1.493791   -0.760936
     40          1           0       -4.256620   -3.050832   -0.025508
     41          1           0       -1.806851   -2.033480    1.491042
 ---------------------------------------------------------------------

 SCF Done:  E(RB3LYP) =  -1116.99039096     A.U. after   16 cycles

 Excitation energies and oscillator strengths:

 Excited State   1:      Triplet-A      1.8200 eV  681.23 nm  f=0.0000  <S**2>=2.000
      72 -> 78        -0.13866
      75 -> 78        -0.23245
      76 -> 78        -0.23934
      77 -> 78         0.60230
      77 <- 78         0.11557
 This state for optimization and/or second-order correction.
 Total Energy, E(TD-HF/TD-DFT) =  -1116.92350653
 Copying the excited state density for this state as the 1-particle RhoCI density.

 Excited State   2:      Singlet-A      3.2632 eV  379.95 nm  f=0.1268  <S**2>=0.000
      72 -> 78         0.13492
      77 -> 78         0.68892

 Excited State   3:      Triplet-A      3.4203 eV  362.49 nm  f=0.0000  <S**2>=2.000
      72 -> 78         0.44008
      72 -> 79        -0.10260
      75 -> 78         0.21980
      76 -> 78         0.31597
      77 -> 78         0.30501
      77 -> 79         0.15536

 Excited State   4:      Triplet-A      3.4752 eV  356.77 nm  f=0.0000  <S**2>=2.000
      72 -> 78         0.42831
      75 -> 78        -0.21096
      76 -> 78        -0.41278
      77 -> 78        -0.17144
      77 -> 79         0.17179

 Excited State   5:      Singlet-A      3.5239 eV  351.84 nm  f=0.0179  <S**2>=0.000
      75 -> 78         0.16780
      76 -> 78         0.67686

 Excited State   6:      Singlet-A      3.6249 eV  342.04 nm  f=0.0083  <S**2>=0.000
      75 -> 78         0.67661
      76 -> 78        -0.18272

 The electronic state is 1-A.
 Alpha  occ. eigenvalues --  -66.13903 -19.20778 -19.19325 -14.37353 -10.35112
 Alpha  occ. eigenvalues --  -10.30645 -10.28569 -10.26520 -10.25785 -10.23637
 Alpha  occ. eigenvalues --  -10.22731 -10.21973 -10.19772 -10.19169 -10.18860
 Alpha  occ. eigenvalues --  -10.18741 -10.18709 -10.18519 -10.18027 -10.16781
 Alpha  occ. eigenvalues --   -5.28344  -3.64291  -3.64225  -3.64135  -1.13251
 Alpha  occ. eigenvalues --   -1.07465  -0.94146  -0.86659  -0.83886  -0.80533
 Alpha  occ. eigenvalues --   -0.78548  -0.77273  -0.72679  -0.70633  -0.69772
 Alpha  occ. eigenvalues --   -0.68624  -0.65916  -0.64809  -0.62526  -0.58919
 Alpha  occ. eigenvalues --   -0.55022  -0.53779  -0.52835  -0.50303  -0.50159
 Alpha  occ. eigenvalues --   -0.49296  -0.48386  -0.47095  -0.46524  -0.45969
 Alpha  occ. eigenvalues --   -0.45315  -0.43639  -0.43177  -0.42532  -0.42193
 Alpha  occ. eigenvalues --   -0.41462  -0.40906  -0.40624  -0.39358  -0.38966
 Alpha  occ. eigenvalues --   -0.38522  -0.37954  -0.37731  -0.37113  -0.36843
 Alpha  occ. eigenvalues --   -0.36255  -0.36079  -0.35589  -0.34436  -0.34196
 Alpha  occ. eigenvalues --   -0.32338  -0.32088  -0.30983  -0.29830  -0.26763
 Alpha  occ. eigenvalues --   -0.26354  -0.25513
 Alpha virt. eigenvalues --   -0.11784  -0.04497  -0.01487  -0.00668  -0.00492
 Alpha virt. eigenvalues --    0.00061   0.00629   0.00951   0.01577   0.01911
 Alpha virt. eigenvalues --    0.02348   0.02650   0.02952   0.03268   0.03846

 Mulliken charges:
               1
     1  C   -0.055341
     2  C    1.504810
     3  C   -1.005978
     4  N   -0.429275
     5  C   -0.079935
     6  C   -0.265488
     7  C    0.366351
     8  C   -0.545836
     9  C   -0.965782
    10  Si   1.146083
    11  C   -0.761619
    12  C    0.238685
    13  C   -0.286910
    14  C   -0.518376
    15  C   -0.135287
    16  C   -0.508565
    17  C   -0.518941
    18  C    0.656228
    19  O   -0.458362
    20  O   -0.408422
    21  H    0.193098
    22  H    0.175564
    23  H    0.146768
    24  H    0.160280
    25  H    0.146884
    26  H    0.163487
    27  H    0.177661
    28  H    0.152208
    29  H    0.169032
    30  H    0.168679
    31  H    0.147922
    32  H    0.167328
    33  H    0.158749
    34  H    0.149398
    35  H    0.147716
    36  H    0.138614
    37  H    0.153231
    38  H    0.142160
    39  H    0.161189
    40  H    0.149535
    41  H   -0.137543
 Sum of Mulliken charges =  -0.00000

 Dipole moment (field-independent basis, Debye):
    X=             -0.6893    Y=              2.2626    Z=             -1.4377  Tot=              2.7679
 Quadrupole moment (field-independent basis, Debye-Ang):
   XX=           -123.8453   YY=           -133.7844   ZZ=           -129.3789
   XY=             10.4235   XZ=            -10.9484   YZ=              6.7496

 Normal termination of Gaussian 16 at Wed Aug 13 15:45:26 2025.
