 Gaussian 16, Revision C.02,
 Gaussian 16:  ES64L-G16RevC.02  7-Dec-2021

 ----------------------------------------------------------
 # td=(50-50,nstates=3) b3lyp/6-31+g(d,p) geom=connectivity
 ----------------------------------------------------------

 -------------------
 Title Card Required
 -------------------
 Symbolic Z-matrix:
 Charge =  0 Multiplicity = 1

                         Standard orientation:
 ---------------------------------------------------------------------
 Center     Atomic      Atomic             Coordinates (Angstroms)
 Number     Number       Type             X           Y           Z
 ---------------------------------------------------------------------
      1          6           0       -2.190420    2.615786   -0.609085
      2          7           0       -1.371149    1.472633   -0.230962
      3          6           0       -0.338821    1.692173    0.781980
      4          6           0        0.756932    0.673178    0.694104
      5          7           0        1.082258   -0.077893    1.716994
      6          8           0        2.155528   -0.840802    1.232658
      7          6           0        2.353741   -0.451593   -0.039159
      8          6           0        3.445493   -1.093704   -0.815993
      9         17           0        5.063485   -0.361958   -0.427190
     10          7           0        1.529691    0.474605   -0.430749
     11          7           0       -1.925230    0.238942   -0.136742
     12          6           0       -3.074410   -0.026024   -0.642214
     13          6           0       -3.573609   -1.452229   -0.568489
     14          6           0       -4.925837   -1.540657   -0.000364
     15          7           0       -6.000558   -1.593417    0.436637
     16          1           0       -2.560280    2.492468   -1.632014
     17          1           0       -3.054240    2.750846    0.062647
     18          1           0       -1.574048    3.515385   -0.583944
     19          1           0        0.097072    2.678108    0.596796
     20          1           0       -0.744787    1.680614    1.803335
     21          1           0        3.517309   -2.156272   -0.584964
     22          1           0        3.267959   -0.940468   -1.878667
     23          1           0       -3.710693    0.702136   -1.147349
     24          1           0       -3.602698   -1.907558   -1.568448
     25          1           0       -2.882572   -2.041237    0.042636
 ---------------------------------------------------------------------

 SCF Done:  E(RB3LYP) =  -1119.98091815     A.U. after   15 cycles

 Excitation energies and oscillator strengths:

 Excited State   1:      Triplet-A      3.4269 eV  361.80 nm  f=0.0000  <S**2>=2.000
      48 -> 61         0.12357
      59 -> 60        -0.10535
      59 -> 61         0.66481
 This state for optimization and/or second-order correction.
 Total Energy, E(TD-HF/TD-DFT) =  -1119.85498200
 Copying the excited state density for this state as the 1-particle RhoCI density.

 Excited State   2:      Triplet-A      4.0224 eV  308.24 nm  f=0.0000  <S**2>=2.000
      59 -> 60         0.69184

 Excited State   3:      Singlet-A      4.0493 eV  306.19 nm  f=0.0071  <S**2>=0.000
      59 -> 60         0.70445

 Excited State   4:      Triplet-A      4.0880 eV  303.29 nm  f=0.0000  <S**2>=2.000
      54 -> 60         0.14532
      57 -> 60         0.58428
      57 -> 62        -0.16671
      58 -> 60        -0.23766

 Excited State   5:      Singlet-A      5.3316 eV  232.55 nm  f=0.0052  <S**2>=0.000
      59 -> 62         0.66916
      59 -> 64        -0.20043

 Excited State   6:      Singlet-A      5.4030 eV  229.47 nm  f=0.1900  <S**2>=0.000
      59 -> 61         0.59616
      59 -> 63         0.35698

 The electronic state is 1-A.
 Alpha  occ. eigenvalues -- -101.56539 -19.27622 -14.41780 -14.40899 -14.39443
 Alpha  occ. eigenvalues --  -14.37306 -14.34749 -10.32554 -10.29077 -10.28460
 Alpha  occ. eigenvalues --  -10.26010 -10.25200 -10.24872 -10.24341 -10.24158
 Alpha  occ. eigenvalues --   -9.48067  -7.24525  -7.23468  -7.23443  -1.19316
 Alpha  occ. eigenvalues --   -1.04133  -0.96884  -0.91718  -0.91514  -0.88168
 Alpha  occ. eigenvalues --   -0.86882  -0.79444  -0.76975  -0.74376  -0.70483
 Alpha  occ. eigenvalues --   -0.65032  -0.62503  -0.58677  -0.56206  -0.53344
 Alpha  occ. eigenvalues --   -0.53233  -0.51678  -0.50861  -0.49399  -0.48663
 Alpha  occ. eigenvalues --   -0.47155  -0.46411  -0.44840  -0.44309  -0.43429
 Alpha  occ. eigenvalues --   -0.42995  -0.41212  -0.38164  -0.36895  -0.36734
 Alpha  occ. eigenvalues --   -0.35248  -0.34048  -0.33619  -0.32992  -0.32615
 Alpha  occ. eigenvalues --   -0.32127  -0.31221  -0.29982  -0.24309
 Alpha virt. eigenvalues --   -0.07132  -0.02956  -0.01760  -0.00978  -0.00545
 Alpha virt. eigenvalues --    0.00711   0.01264   0.01954   0.02046   0.02447
 Alpha virt. eigenvalues --    0.02848   0.03566   0.03873   0.04451   0.04659

 Mulliken charges:
               1
     1  C   -0.303944
     2  N    0.258739
     3  C   -0.281646
     4  C    0.790787
     5  N   -0.408638
     6  O    0.105076
     7  C   -0.226419
     8  C   -0.632618
     9  Cl   0.073615
    10  N   -0.194039
    11  N   -0.292150
    12  C   -0.084084
    13  C   -0.306992
    14  C    0.255632
    15  N   -0.510746
    16  H    0.152650
    17  H    0.159520
    18  H    0.150612
    19  H    0.153163
    20  H    0.164081
    21  H    0.220657
    22  H    0.225008
    23  H    0.129888
    24  H    0.195586
    25  H    0.206263
 Sum of Mulliken charges =  -0.00000

 Dipole moment (field-independent basis, Debye):
    X=              2.0065    Y=              1.8885    Z=             -3.3024  Tot=              4.3009
 Quadrupole moment (field-independent basis, Debye-Ang):
   XX=           -133.3151   YY=            -83.6099   ZZ=            -98.0678
   XY=            -15.2306   XZ=              6.4726   YZ=              6.6994

 Normal termination of Gaussian 16 at Wed Aug 13 15:29:55 2025.
