 Gaussian 16, Revision C.02,
 Gaussian 16:  ES64L-G16RevC.02  7-Dec-2021

 ----------------------------------------------------------
 # td=(50-50,nstates=3) b3lyp/6-31+g(d,p) geom=connectivity
 ----------------------------------------------------------

 -------------------
 Title Card Required
 -------------------
 Symbolic Z-matrix:
 Charge =  0 Multiplicity = 1

                         Standard orientation:
 ---------------------------------------------------------------------
 Center     Atomic      Atomic             Coordinates (Angstroms)
 Number     Number       Type             X           Y           Z
 ---------------------------------------------------------------------
      1          6           0       -0.450164   -1.754833   -1.875299
      2          7           0       -0.752741   -0.912979   -0.727027
      3          6           0       -2.089913   -0.787816   -0.314399
      4          6           0       -3.131483   -1.707950   -0.463482
      5          6           0       -4.387660   -1.380099    0.065050
      6          6           0       -4.603443   -0.164566    0.719077
      7          6           0       -3.549402    0.753224    0.855153
      8          6           0       -2.302044    0.442551    0.329852
      9          6           0       -0.991802    1.217506    0.385480
     10          6           0       -1.136077    2.705594    0.032884
     11          6           0       -0.375256    1.077718    1.795557
     12          6           0       -0.173881    0.443330   -0.725894
     13          6           0        1.334689    0.453752   -0.573023
     14          6           0        2.092222    1.466390   -1.179877
     15          6           0        3.479812    1.524820   -1.022716
     16          6           0        4.141980    0.560425   -0.266849
     17          6           0        3.396044   -0.470009    0.331854
     18          6           0        4.064661   -1.481756    1.101660
     19          7           0        4.609359   -2.300509    1.724313
     20          6           0        2.001000   -0.519669    0.179051
     21          1           0        0.630444   -1.786083   -2.031539
     22          1           0       -0.787602   -2.777174   -1.687995
     23          1           0       -0.929860   -1.390022   -2.800059
     24          1           0       -2.983583   -2.654638   -0.972465
     25          1           0       -5.207011   -2.084966   -0.044749
     26          1           0       -5.585610    0.073663    1.115434
     27          1           0       -3.716949    1.701877    1.359019
     28          1           0       -1.747974    3.221460    0.780365
     29          1           0       -0.157977    3.200143    0.015975
     30          1           0       -1.612258    2.841794   -0.943499
     31          1           0       -1.047546    1.528908    2.532421
     32          1           0       -0.236068    0.028823    2.072097
     33          1           0        0.592757    1.585066    1.862488
     34          1           0       -0.414050    0.933186   -1.688278
     35          1           0        1.591453    2.214576   -1.788685
     36          1           0        4.045939    2.318801   -1.499912
     37          1           0        5.219329    0.589785   -0.144074
     38          1           0        1.434546   -1.322453    0.637991
 ---------------------------------------------------------------------

 SCF Done:  E(RB3LYP) =  -806.305911247     A.U. after   16 cycles

 Excitation energies and oscillator strengths:

 Excited State   1:      Triplet-A      3.2761 eV  378.45 nm  f=0.0000  <S**2>=2.000
      68 -> 71         0.17140
      70 -> 71         0.67662
 This state for optimization and/or second-order correction.
 Total Energy, E(TD-HF/TD-DFT) =  -806.185516081
 Copying the excited state density for this state as the 1-particle RhoCI density.

 Excited State   2:      Singlet-A      3.2992 eV  375.80 nm  f=0.0006  <S**2>=0.000
      70 -> 71         0.70589

 Excited State   3:      Triplet-A      3.4065 eV  363.97 nm  f=0.0000  <S**2>=2.000
      67 -> 71         0.29146
      67 -> 72        -0.27191
      68 -> 71         0.49650
      68 -> 72         0.17244
      70 -> 71        -0.19540
      70 -> 72         0.10729

 Excited State   4:      Triplet-A      3.5057 eV  353.66 nm  f=0.0000  <S**2>=2.000
      66 -> 75        -0.11088
      69 -> 73         0.31488
      70 -> 72         0.23250
      70 -> 74        -0.23215
      70 -> 75         0.47692

 Excited State   5:      Singlet-A      3.8461 eV  322.36 nm  f=0.0012  <S**2>=0.000
      70 -> 72         0.70476

 Excited State   6:      Singlet-A      4.4726 eV  277.21 nm  f=0.0595  <S**2>=0.000
      69 -> 75        -0.16690
      70 -> 73         0.67517

 The electronic state is 1-A.
 Alpha  occ. eigenvalues --  -14.36321 -14.34840 -10.25163 -10.24506 -10.23990
 Alpha  occ. eigenvalues --  -10.22888 -10.22879 -10.22819 -10.22507 -10.22488
 Alpha  occ. eigenvalues --  -10.22437 -10.22382 -10.22356 -10.19802 -10.19711
 Alpha  occ. eigenvalues --  -10.19525 -10.19483 -10.19200 -10.19029 -10.18623
 Alpha  occ. eigenvalues --   -0.97248  -0.91813  -0.88914  -0.85401  -0.83103
 Alpha  occ. eigenvalues --   -0.79768  -0.78564  -0.74976  -0.74335  -0.72041
 Alpha  occ. eigenvalues --   -0.69987  -0.66829  -0.66422  -0.63779  -0.61347
 Alpha  occ. eigenvalues --   -0.58601  -0.57189  -0.55190  -0.51761  -0.51053
 Alpha  occ. eigenvalues --   -0.50624  -0.48904  -0.47659  -0.47089  -0.45954
 Alpha  occ. eigenvalues --   -0.45339  -0.44362  -0.44130  -0.43163  -0.42430
 Alpha  occ. eigenvalues --   -0.41459  -0.41065  -0.40285  -0.39693  -0.38847
 Alpha  occ. eigenvalues --   -0.38596  -0.37470  -0.36883  -0.36683  -0.36312
 Alpha  occ. eigenvalues --   -0.35917  -0.34979  -0.34247  -0.33888  -0.32979
 Alpha  occ. eigenvalues --   -0.29756  -0.27999  -0.27340  -0.25412  -0.20764
 Alpha virt. eigenvalues --   -0.06527  -0.04239  -0.01706  -0.01186  -0.00210
 Alpha virt. eigenvalues --    0.00378   0.00611   0.01097   0.01652   0.02078
 Alpha virt. eigenvalues --    0.02594   0.02761   0.03275   0.03426   0.03696

 Mulliken charges:
               1
     1  C   -0.183413
     2  N    0.112794
     3  C   -0.674667
     4  C   -0.106975
     5  C   -0.320614
     6  C    0.007051
     7  C   -0.395756
     8  C    0.553292
     9  C    0.218600
    10  C   -0.392896
    11  C   -0.571683
    12  C   -0.478497
    13  C    0.635233
    14  C   -0.289697
    15  C    0.141436
    16  C   -0.137923
    17  C    0.449816
    18  C   -0.179649
    19  N   -0.527730
    20  C   -0.376402
    21  H    0.151577
    22  H    0.144943
    23  H    0.141788
    24  H    0.113157
    25  H    0.122874
    26  H    0.121067
    27  H    0.118537
    28  H    0.147731
    29  H    0.148486
    30  H    0.154752
    31  H    0.150193
    32  H    0.161995
    33  H    0.153660
    34  H    0.114402
    35  H    0.126880
    36  H    0.137670
    37  H    0.148412
    38  H    0.159557
 Sum of Mulliken charges =  -0.00000

 Dipole moment (field-independent basis, Debye):
    X=             -1.7776    Y=              3.4904    Z=             -3.0671  Tot=              4.9749
 Quadrupole moment (field-independent basis, Debye-Ang):
   XX=           -131.6366   YY=           -120.5699   ZZ=           -123.7085
   XY=             16.8305   XZ=            -12.8572   YZ=              7.2520

 Normal termination of Gaussian 16 at Mon Aug 25 11:22:44 2025.
