 Gaussian 16, Revision C.02,
 Gaussian 16:  ES64L-G16RevC.02  7-Dec-2021

 ----------------------------------------------------------
 # td=(50-50,nstates=3) b3lyp/6-31+g(d,p) geom=connectivity
 ----------------------------------------------------------

 -------------------
 Title Card Required
 -------------------
 Symbolic Z-matrix:
 Charge =  0 Multiplicity = 1

                         Standard orientation:
 ---------------------------------------------------------------------
 Center     Atomic      Atomic             Coordinates (Angstroms)
 Number     Number       Type             X           Y           Z
 ---------------------------------------------------------------------
      1          6           0        5.244319   -1.774792    0.570965
      2          8           0        3.868838   -1.835699    0.182676
      3          6           0        3.182766   -0.684821    0.055297
      4          6           0        1.868115   -0.620338   -0.316637
      5          6           0        1.504902    0.784672   -0.342898
      6          6           0        0.294963    1.336208   -0.662397
      7          6           0        0.170366    2.761097   -0.690393
      8          7           0        0.034422    3.918347   -0.742151
      9          6           0       -0.929594    0.523704   -1.052174
     10          6           0       -1.609286   -0.256997    0.102330
     11          6           0       -2.502951    0.517677    1.078179
     12          6           0       -2.209873    1.903914    1.568228
     13          7           0       -3.507038   -0.147845    1.513447
     14          6           0       -3.500049   -1.480586    0.897133
     15          6           0       -2.567744   -1.409611   -0.345361
     16          6           0       -1.831201   -2.729118   -0.610140
     17          6           0       -3.406023   -1.023973   -1.581394
     18          6           0        2.711467    1.556214    0.043402
     19          6           0        3.712764    0.681218    0.284980
     20          1           0        5.585837   -2.809300    0.607544
     21          1           0        5.837943   -1.221091   -0.164641
     22          1           0        5.355107   -1.319623    1.561256
     23          1           0        1.234801   -1.461127   -0.555287
     24          1           0       -1.654192    1.177820   -1.544095
     25          1           0       -0.606859   -0.206672   -1.803889
     26          1           0       -0.804965   -0.701612    0.708792
     27          1           0       -2.954640    2.191918    2.312702
     28          1           0       -1.212311    1.956421    2.020988
     29          1           0       -2.224127    2.634159    0.751924
     30          1           0       -4.522406   -1.785063    0.645723
     31          1           0       -3.125157   -2.200321    1.639765
     32          1           0       -1.155563   -2.647982   -1.470770
     33          1           0       -1.238212   -3.038635    0.257919
     34          1           0       -2.541394   -3.533653   -0.834194
     35          1           0       -2.788707   -0.905419   -2.478286
     36          1           0       -4.137936   -1.811537   -1.791922
     37          1           0       -3.959054   -0.092241   -1.420898
     38          1           0        2.749671    2.635188    0.113810
     39          1           0        4.722129    0.924056    0.588359
 ---------------------------------------------------------------------

 SCF Done:  E(RB3LYP) =  -806.449259879     A.U. after   15 cycles

 Excitation energies and oscillator strengths:

 Excited State   1:      Triplet-A      1.4127 eV  877.67 nm  f=0.0000  <S**2>=2.000
      69 -> 70         0.70808
      69 <- 70         0.13590
 This state for optimization and/or second-order correction.
 Total Energy, E(TD-HF/TD-DFT) =  -806.397345857
 Copying the excited state density for this state as the 1-particle RhoCI density.

 Excited State   2:      Triplet-A      2.2418 eV  553.06 nm  f=0.0000  <S**2>=2.000
      67 -> 70         0.64895
      68 -> 70         0.25677
      67 <- 70         0.11193

 Excited State   3:      Singlet-A      2.4945 eV  497.03 nm  f=0.0457  <S**2>=0.000
      67 -> 70         0.17904
      69 -> 70         0.68090

 Excited State   4:      Triplet-A      3.4471 eV  359.67 nm  f=0.0000  <S**2>=2.000
      67 -> 70        -0.25588
      68 -> 70         0.65532

 Excited State   5:      Singlet-A      3.4518 eV  359.19 nm  f=0.0095  <S**2>=0.000
      67 -> 70        -0.13358
      68 -> 70         0.69249

 Excited State   6:      Singlet-A      4.0179 eV  308.58 nm  f=0.0717  <S**2>=0.000
      66 -> 70         0.65116
      67 -> 70         0.26054

 The electronic state is 1-A.
 Alpha  occ. eigenvalues --  -19.21473 -14.35063 -14.32394 -10.27727 -10.26553
 Alpha  occ. eigenvalues --  -10.25660 -10.24199 -10.23572 -10.23308 -10.22130
 Alpha  occ. eigenvalues --  -10.21891 -10.21542 -10.21253 -10.21235 -10.20804
 Alpha  occ. eigenvalues --  -10.19059 -10.18956 -10.18610 -10.18536  -1.09702
 Alpha  occ. eigenvalues --   -0.94184  -0.92020  -0.89219  -0.83683  -0.81167
 Alpha  occ. eigenvalues --   -0.77000  -0.75933  -0.73014  -0.71637  -0.69894
 Alpha  occ. eigenvalues --   -0.68150  -0.66837  -0.64538  -0.59304  -0.56915
 Alpha  occ. eigenvalues --   -0.55639  -0.55331  -0.52508  -0.49696  -0.49395
 Alpha  occ. eigenvalues --   -0.48534  -0.47894  -0.47026  -0.46340  -0.44669
 Alpha  occ. eigenvalues --   -0.44109  -0.43290  -0.42282  -0.41710  -0.41622
 Alpha  occ. eigenvalues --   -0.40789  -0.40519  -0.40023  -0.39035  -0.38581
 Alpha  occ. eigenvalues --   -0.38315  -0.37516  -0.37102  -0.36739  -0.35352
 Alpha  occ. eigenvalues --   -0.34655  -0.34336  -0.34058  -0.33557  -0.32402
 Alpha  occ. eigenvalues --   -0.27675  -0.26560  -0.25374  -0.22404
 Alpha virt. eigenvalues --   -0.10759  -0.00979  -0.00534  -0.00011   0.00975
 Alpha virt. eigenvalues --    0.01230   0.01428   0.01776   0.02191   0.02587
 Alpha virt. eigenvalues --    0.03143   0.03387   0.03572   0.03996   0.04165

 Mulliken charges:
               1
     1  C   -0.122838
     2  O   -0.347415
     3  C   -0.381474
     4  C   -0.238675
     5  C    1.152268
     6  C   -0.023370
     7  C   -0.028642
     8  N   -0.476485
     9  C   -0.464895
    10  C    0.178958
    11  C    0.099187
    12  C   -0.778042
    13  N   -0.152237
    14  C   -0.154061
    15  C   -0.053346
    16  C   -0.512408
    17  C   -0.438768
    18  C   -0.722438
    19  C    0.390122
    20  H    0.157273
    21  H    0.151150
    22  H    0.151090
    23  H    0.134604
    24  H    0.164499
    25  H    0.168111
    26  H    0.161724
    27  H    0.174113
    28  H    0.161681
    29  H    0.172929
    30  H    0.140352
    31  H    0.141488
    32  H    0.143241
    33  H    0.149185
    34  H    0.151082
    35  H    0.145895
    36  H    0.150549
    37  H    0.164104
    38  H    0.157931
    39  H    0.133562
 Sum of Mulliken charges =  -0.00000

 Dipole moment (field-independent basis, Debye):
    X=              4.3174    Y=             -4.0767    Z=             -0.4509  Tot=              5.9551
 Quadrupole moment (field-independent basis, Debye-Ang):
   XX=           -100.0062   YY=           -131.0471   ZZ=           -119.7985
   XY=              0.4341   XZ=             12.2228   YZ=              3.2443

 Normal termination of Gaussian 16 at Mon Aug 25 07:42:54 2025.
