 Gaussian 16, Revision C.02,
 Gaussian 16:  ES64L-G16RevC.02  7-Dec-2021

 ----------------------------------------------------------
 # td=(50-50,nstates=3) b3lyp/6-31+g(d,p) geom=connectivity
 ----------------------------------------------------------

 -------------------
 Title Card Required
 -------------------
 Symbolic Z-matrix:
 Charge =  0 Multiplicity = 1

                         Standard orientation:
 ---------------------------------------------------------------------
 Center     Atomic      Atomic             Coordinates (Angstroms)
 Number     Number       Type             X           Y           Z
 ---------------------------------------------------------------------
      1          6           0       -4.174458   -1.075357   -2.052115
      2          6           0       -3.777044   -0.399061   -0.960503
      3          6           0       -4.416892    0.842826   -0.604826
      4          7           0       -4.908308    1.858334   -0.320667
      5          6           0       -2.718146   -0.879163   -0.046426
      6          6           0       -1.401576   -1.129134   -0.176806
      7          6           0       -0.459639   -1.028378   -1.361649
      8          6           0       -0.878922   -0.092922   -2.512222
      9          6           0        1.049023   -0.908879   -0.972515
     10          6           0        1.823508    0.231988   -0.268943
     11          6           0        1.318912    1.456665    0.239206
     12          6           0       -0.141801    1.906559    0.191768
     13          6           0       -0.717280    2.196761    1.594780
     14          6           0       -0.329484    3.133399   -0.726160
     15          6           0        2.204710    2.369926    0.842002
     16          6           0        3.558994    2.110983    0.969252
     17          6           0        4.059283    0.907702    0.480205
     18          6           0        3.227903   -0.031004   -0.136511
     19          6           0        3.885797   -1.343378   -0.591744
     20          6           0        5.250992   -1.145319   -1.280248
     21          6           0        4.018199   -2.325148    0.593594
     22          6           0       -0.931111   -1.641543    1.165790
     23          6           0       -2.172628   -1.576104    2.037773
     24          8           0       -2.322513   -1.864129    3.194044
     25          8           0       -3.208763   -1.110917    1.252163
     26          1           0       -3.720174   -2.026534   -2.307395
     27          1           0       -4.955586   -0.691802   -2.699715
     28          1           0       -0.469424   -2.039652   -1.802927
     29          1           0       -0.065445   -0.036852   -3.242579
     30          1           0       -1.760325   -0.470727   -3.034262
     31          1           0       -1.102330    0.923647   -2.186040
     32          1           0        1.270153   -1.817550   -0.400379
     33          1           0        1.556266   -1.063106   -1.931472
     34          1           0       -0.741331    1.100252   -0.217743
     35          1           0       -1.788760    2.413376    1.526196
     36          1           0       -0.584772    1.346463    2.271893
     37          1           0       -0.236551    3.062391    2.061859
     38          1           0       -1.391252    3.391294   -0.809813
     39          1           0        0.061035    2.947248   -1.732136
     40          1           0        0.193827    4.009708   -0.328922
     41          1           0        1.810676    3.306890    1.222615
     42          1           0        4.218487    2.831997    1.443855
     43          1           0        5.118461    0.697489    0.583745
     44          1           0        3.251963   -1.825790   -1.337632
     45          1           0        5.591428   -2.095953   -1.705739
     46          1           0        5.186507   -0.413191   -2.091805
     47          1           0        6.026718   -0.809229   -0.584794
     48          1           0        4.438516   -3.281680    0.261617
     49          1           0        3.050171   -2.525876    1.065462
     50          1           0        4.679073   -1.913315    1.364350
     51          1           0       -0.568089   -2.676962    1.134981
     52          1           0       -0.130918   -1.039019    1.609573
 ---------------------------------------------------------------------

 SCF Done:  E(RB3LYP) =  -1059.81281245     A.U. after   16 cycles

 Excitation energies and oscillator strengths:

 Excited State   1:      Triplet-A      2.9780 eV  416.33 nm  f=0.0000  <S**2>=2.000
      87 -> 92         0.37591
      88 -> 92         0.14861
      89 -> 92         0.51955
      89 -> 93         0.16164
 This state for optimization and/or second-order correction.
 Total Energy, E(TD-HF/TD-DFT) =  -1059.70337271
 Copying the excited state density for this state as the 1-particle RhoCI density.

 Excited State   2:      Triplet-A      3.4998 eV  354.26 nm  f=0.0000  <S**2>=2.000
      87 -> 92         0.46004
      88 -> 92         0.20922
      89 -> 92        -0.23387
      89 -> 93        -0.35009

 Excited State   3:      Triplet-A      3.5849 eV  345.85 nm  f=0.0000  <S**2>=2.000
      90 -> 94        -0.19795
      90 -> 95         0.14467
      90 -> 96         0.29478
      90 -> 97        -0.17433
      91 -> 94        -0.35652
      91 -> 95         0.28577
      91 -> 96        -0.29414

 Excited State   4:      Singlet-A      3.8857 eV  319.08 nm  f=0.0125  <S**2>=0.000
      89 -> 92         0.26958
      90 -> 92        -0.24665
      91 -> 92         0.60242

 Excited State   5:      Singlet-A      3.9041 eV  317.57 nm  f=0.0264  <S**2>=0.000
      89 -> 92         0.46265
      90 -> 92        -0.37641
      91 -> 92        -0.36885

 Excited State   6:      Singlet-A      3.9954 eV  310.32 nm  f=0.0136  <S**2>=0.000
      89 -> 92         0.44501
      90 -> 92         0.54399

 The electronic state is 1-A.
 Alpha  occ. eigenvalues --  -19.22711 -19.16534 -14.36053 -10.34104 -10.28603
 Alpha  occ. eigenvalues --  -10.27596 -10.25159 -10.24786 -10.23729 -10.23601
 Alpha  occ. eigenvalues --  -10.23386 -10.21622 -10.21574 -10.20729 -10.20526
 Alpha  occ. eigenvalues --  -10.20520 -10.19982 -10.19953 -10.19413 -10.19134
 Alpha  occ. eigenvalues --  -10.19051 -10.18942 -10.18710 -10.18153 -10.18011
 Alpha  occ. eigenvalues --   -1.13503  -1.05512  -0.92765  -0.87608  -0.86537
 Alpha  occ. eigenvalues --   -0.84704  -0.82154  -0.80457  -0.79318  -0.76339
 Alpha  occ. eigenvalues --   -0.74539  -0.72809  -0.70247  -0.69508  -0.68824
 Alpha  occ. eigenvalues --   -0.68178  -0.65093  -0.63390  -0.62483  -0.60427
 Alpha  occ. eigenvalues --   -0.58557  -0.57310  -0.55043  -0.54372  -0.51845
 Alpha  occ. eigenvalues --   -0.50799  -0.50365  -0.49253  -0.48126  -0.46931
 Alpha  occ. eigenvalues --   -0.46611  -0.45801  -0.45327  -0.44765  -0.44387
 Alpha  occ. eigenvalues --   -0.43840  -0.43266  -0.43191  -0.42507  -0.41976
 Alpha  occ. eigenvalues --   -0.41404  -0.41002  -0.40337  -0.39880  -0.39690
 Alpha  occ. eigenvalues --   -0.39234  -0.38707  -0.38301  -0.38031  -0.37764
 Alpha  occ. eigenvalues --   -0.37456  -0.36366  -0.36158  -0.36018  -0.35517
 Alpha  occ. eigenvalues --   -0.35199  -0.35067  -0.33801  -0.33693  -0.32202
 Alpha  occ. eigenvalues --   -0.31755  -0.30770  -0.29479  -0.25833  -0.24788
 Alpha  occ. eigenvalues --   -0.24381
 Alpha virt. eigenvalues --   -0.08577  -0.04183  -0.02171  -0.01896  -0.01396
 Alpha virt. eigenvalues --   -0.00732   0.00153   0.00267   0.00556   0.01077
 Alpha virt. eigenvalues --    0.01372   0.01966   0.02220   0.02516   0.02945

 Mulliken charges:
               1
     1  C   -0.099556
     2  C    0.008408
     3  C   -0.372093
     4  N   -0.438186
     5  C    0.984331
     6  C   -0.448564
     7  C   -0.185811
     8  C   -0.554164
     9  C   -1.165016
    10  C    0.575580
    11  C   -0.358114
    12  C    0.736138
    13  C   -0.575929
    14  C   -0.547056
    15  C   -0.319373
    16  C   -0.273986
    17  C   -0.037610
    18  C    0.041136
    19  C    0.632131
    20  C   -0.488718
    21  C   -0.576012
    22  C   -0.128363
    23  C    0.286075
    24  O   -0.432667
    25  O   -0.195629
    26  H    0.156649
    27  H    0.168287
    28  H    0.151253
    29  H    0.143024
    30  H    0.146868
    31  H    0.159698
    32  H    0.147316
    33  H    0.156199
    34  H    0.090678
    35  H    0.157320
    36  H    0.136375
    37  H    0.141207
    38  H    0.153453
    39  H    0.144698
    40  H    0.145880
    41  H    0.113399
    42  H    0.124604
    43  H    0.109253
    44  H    0.110575
    45  H    0.144913
    46  H    0.150592
    47  H    0.140811
    48  H    0.141659
    49  H    0.135477
    50  H    0.155409
    51  H    0.194907
    52  H    0.212545
 Sum of Mulliken charges =  -0.00000

 Dipole moment (field-independent basis, Debye):
    X=              3.9528    Y=             -3.0059    Z=             -5.3850  Tot=              7.3252
 Quadrupole moment (field-independent basis, Debye-Ang):
   XX=           -168.1125   YY=           -153.1540   ZZ=           -160.7604
   XY=              8.6262   XZ=             18.6707   YZ=             12.4274

 Normal termination of Gaussian 16 at Sun Aug 24 22:42:57 2025.
