 Gaussian 16, Revision C.02,
 Gaussian 16:  ES64L-G16RevC.02  7-Dec-2021

 -------------------------------------
 # b3lyp/6-31+g(d,p) geom=connectivity
 -------------------------------------

 -------------------
 Title Card Required
 -------------------
 Symbolic Z-matrix:
 Charge =  0 Multiplicity = 1

                         Standard orientation:
 ---------------------------------------------------------------------
 Center     Atomic      Atomic             Coordinates (Angstroms)
 Number     Number       Type             X           Y           Z
 ---------------------------------------------------------------------
      1          6           0       -1.085849    4.600978    0.180588
      2          6           0       -0.234454    3.375776   -0.096724
      3          8           0       -1.092047    2.225533   -0.051389
      4          6           0       -0.547392    0.995538   -0.242156
      5          6           0        0.751256    0.753817   -0.515634
      6          6           0        1.269851   -0.634598   -0.746667
      7          6           0        2.608634   -0.934636    0.017396
      8          6           0        3.711366   -0.108219   -0.499047
      9          7           0        4.559074    0.546615   -0.945441
     10          6           0        2.466112   -0.757262    1.473758
     11          7           0        2.331795   -0.635529    2.619526
     12          6           0        0.285558   -1.783558   -0.468868
     13          8           0        0.700273   -2.936993   -0.467120
     14          6           0       -1.133590   -1.439675   -0.249045
     15          6           0       -2.072209   -2.475347   -0.126928
     16          6           0       -3.413561   -2.184983    0.100434
     17          6           0       -3.820175   -0.850044    0.217517
     18          6           0       -2.895533    0.188305    0.107416
     19          6           0       -1.541377   -0.089805   -0.129327
     20          1           0       -0.459739    5.498442    0.151880
     21          1           0       -1.874333    4.706391   -0.570463
     22          1           0       -1.550603    4.536272    1.168707
     23          1           0        0.556736    3.262111    0.655682
     24          1           0        0.235337    3.435223   -1.087560
     25          1           0        1.464158    1.562868   -0.622599
     26          1           0        1.529247   -0.750144   -1.811533
     27          1           0        2.845363   -1.990768   -0.169675
     28          1           0       -1.722627   -3.498614   -0.214431
     29          1           0       -4.138710   -2.987930    0.188490
     30          1           0       -4.865325   -0.616455    0.398695
     31          1           0       -3.213214    1.218951    0.205996
 ---------------------------------------------------------------------

 SCF Done:  E(RB3LYP) =  -838.768799272     A.U. after   16 cycles

 The electronic state is 1-A.
 Alpha  occ. eigenvalues --  -19.20998 -19.17283 -14.37187 -14.36715 -10.31043
 Alpha  occ. eigenvalues --  -10.30512 -10.28403 -10.26614 -10.26467 -10.25985
 Alpha  occ. eigenvalues --  -10.25966 -10.24135 -10.23104 -10.22784 -10.22452
 Alpha  occ. eigenvalues --  -10.22246 -10.22091 -10.21618 -10.20248  -1.09511
 Alpha  occ. eigenvalues --   -1.07230  -0.94589  -0.93050  -0.89979  -0.87270
 Alpha  occ. eigenvalues --   -0.82968  -0.79879  -0.77722  -0.77174  -0.72667
 Alpha  occ. eigenvalues --   -0.67307  -0.65852  -0.63975  -0.60723  -0.59405
 Alpha  occ. eigenvalues --   -0.57079  -0.55235  -0.54201  -0.51816  -0.50873
 Alpha  occ. eigenvalues --   -0.49433  -0.48765  -0.47789  -0.46365  -0.45865
 Alpha  occ. eigenvalues --   -0.45213  -0.42991  -0.42534  -0.41920  -0.41256
 Alpha  occ. eigenvalues --   -0.40679  -0.39588  -0.38950  -0.38743  -0.38601
 Alpha  occ. eigenvalues --   -0.37384  -0.36930  -0.36573  -0.35960  -0.35769
 Alpha  occ. eigenvalues --   -0.35548  -0.34721  -0.29634  -0.28609  -0.28352
 Alpha  occ. eigenvalues --   -0.24735
 Alpha virt. eigenvalues --   -0.09891  -0.05793  -0.02546  -0.01381  -0.01086
 Alpha virt. eigenvalues --   -0.00235   0.00322   0.00969   0.01372   0.01607
 Alpha virt. eigenvalues --    0.01915   0.02187   0.02667   0.02896   0.03328

 Mulliken charges:
               1
     1  C   -0.834599
     2  C    0.448931
     3  O   -0.339962
     4  C   -0.147150
     5  C    0.793397
     6  C    0.398756
     7  C    0.286259
     8  C    0.164503
     9  N   -0.416931
    10  C   -0.176594
    11  N   -0.375286
    12  C   -1.065672
    13  O   -0.406659
    14  C    0.262703
    15  C   -0.136866
    16  C   -0.152655
    17  C   -0.305971
    18  C   -0.153053
    19  C    0.190157
    20  H    0.153528
    21  H    0.161977
    22  H    0.164917
    23  H    0.147245
    24  H    0.139881
    25  H    0.143755
    26  H    0.202904
    27  H    0.256098
    28  H    0.165024
    29  H    0.138009
    30  H    0.137501
    31  H    0.155852
 Sum of Mulliken charges =  -0.00000

 Dipole moment (field-independent basis, Debye):
    X=             -5.0318    Y=              1.8499    Z=             -2.1406  Tot=              5.7726
 Quadrupole moment (field-independent basis, Debye-Ang):
   XX=           -118.0558   YY=           -103.2580   ZZ=           -122.5671
   XY=             -0.6520   XZ=             -3.2346   YZ=              1.9863

 1\1\GINC-N1\SP\RB3LYP\6-31+G(d,p)\C15H12N2O2\HPCMGAC13\24-Aug-2025\0\\
 # b3lyp/6-31+g(d,p) geom=connectivity\\Title Card Required\\0,1\C,0,1.
 085849,4.600978,-0.180588\C,0,0.234454,3.375776,0.096724\O,0,1.092047,
 2.225533,0.051389\C,0,0.547392,0.995538,0.242156\C,0,-0.751256,0.75381
 7,0.515634\C,0,-1.269851,-0.634598,0.746667\C,0,-2.608634,-0.934636,-0
 .017396\C,0,-3.711366,-0.108219,0.499047\N,0,-4.559074,0.546615,0.9454
 41\C,0,-2.466112,-0.757262,-1.473758\N,0,-2.331795,-0.635529,-2.619526
 \C,0,-0.285558,-1.783558,0.468868\O,0,-0.700273,-2.936993,0.46712\C,0,

 Normal termination of Gaussian 16 at Sun Aug 24 22:22:39 2025.
