 Gaussian 16, Revision C.02,
 Gaussian 16:  ES64L-G16RevC.02  7-Dec-2021

 ----------------------------------------------------------
 # td=(50-50,nstates=3) b3lyp/6-31+g(d,p) geom=connectivity
 ----------------------------------------------------------

 -------------------
 Title Card Required
 -------------------
 Symbolic Z-matrix:
 Charge =  0 Multiplicity = 1

                         Standard orientation:
 ---------------------------------------------------------------------
 Center     Atomic      Atomic             Coordinates (Angstroms)
 Number     Number       Type             X           Y           Z
 ---------------------------------------------------------------------
      1          6           0       -6.603204   -0.940894    0.000299
      2          6           0       -5.127093   -1.353330    0.000005
      3          6           0       -4.172145   -0.152123    0.000086
      4          6           0       -2.699140   -0.584399   -0.000217
      5          6           0       -1.675724    0.541110   -0.000123
      6          6           0       -2.170709    1.880443   -0.000124
      7          7           0       -2.590945    2.968631   -0.000124
      8          6           0       -0.306234    0.339624   -0.000074
      9          6           0        0.261391   -0.995207   -0.000112
     10          6           0        1.603508   -1.200463   -0.000077
     11          6           0        2.532886   -0.091153    0.000006
     12          6           0        3.908590   -0.305665    0.000044
     13          6           0        4.837754    0.777288    0.000126
     14          7           0        5.587661    1.669340    0.000193
     15          6           0        4.462995   -1.620652    0.000002
     16          7           0        4.901606   -2.700419   -0.000031
     17          6           0        1.976691    1.243705    0.000044
     18          6           0        0.634566    1.445585    0.000004
     19          1           0       -7.258865   -1.817597    0.000234
     20          1           0       -6.847167   -0.341707    0.884962
     21          1           0       -6.847428   -0.341381   -0.884071
     22          1           0       -4.922608   -1.980445   -0.878894
     23          1           0       -4.922350   -1.980771    0.878611
     24          1           0       -4.373658    0.474157    0.878157
     25          1           0       -4.373927    0.474489   -0.877685
     26          1           0       -2.511900   -1.219103   -0.877518
     27          1           0       -2.511655   -1.219477    0.876756
     28          1           0       -0.401124   -1.852867   -0.000179
     29          1           0        1.998969   -2.210865   -0.000111
     30          1           0        2.653961    2.091262    0.000104
     31          1           0        0.244702    2.458233    0.000033
 ---------------------------------------------------------------------

 SCF Done:  E(RB3LYP) =  -743.647153201     A.U. after   17 cycles

 Excitation energies and oscillator strengths:

 Excited State   1:      Triplet-A      0.6989 eV 1773.88 nm  f=0.0000  <S**2>=2.000
      62 -> 63         0.78397
      62 <- 63         0.35714
 This state for optimization and/or second-order correction.
 Total Energy, E(TD-HF/TD-DFT) =  -743.621467435
 Copying the excited state density for this state as the 1-particle RhoCI density.

 Excited State   2:      Triplet-A      2.8639 eV  432.91 nm  f=0.0000  <S**2>=2.000
      61 -> 63         0.67033
      62 -> 64         0.18988

 Excited State   3:      Singlet-A      3.0268 eV  409.62 nm  f=1.0645  <S**2>=0.000
      62 -> 63         0.71623
      62 <- 63        -0.16650

 Excited State   4:      Triplet-A      3.1593 eV  392.44 nm  f=0.0000  <S**2>=2.000
      60 -> 63         0.64543
      62 -> 65        -0.23603

 Excited State   5:      Singlet-A      3.5582 eV  348.44 nm  f=0.0220  <S**2>=0.000
      61 -> 63         0.70100

 Excited State   6:      Singlet-A      4.2451 eV  292.06 nm  f=0.0046  <S**2>=0.000
      60 -> 63         0.63238
      62 -> 64        -0.18656
      62 -> 65         0.24979

 The electronic state is 1-A.
 Alpha  occ. eigenvalues --  -14.37622 -14.37078 -14.37010 -10.29437 -10.28771
 Alpha  occ. eigenvalues --  -10.27990 -10.26815 -10.26498 -10.26363 -10.26275
 Alpha  occ. eigenvalues --  -10.25410 -10.25098 -10.25078 -10.24636 -10.24125
 Alpha  occ. eigenvalues --  -10.21515 -10.20931 -10.19485  -0.94832  -0.94443
 Alpha  occ. eigenvalues --   -0.93065  -0.91920  -0.87911  -0.84210  -0.81223
 Alpha  occ. eigenvalues --   -0.80896  -0.76503  -0.72654  -0.68136  -0.66474
 Alpha  occ. eigenvalues --   -0.65135  -0.61238  -0.60057  -0.58332  -0.55650
 Alpha  occ. eigenvalues --   -0.51302  -0.51079  -0.48975  -0.48007  -0.47142
 Alpha  occ. eigenvalues --   -0.46242  -0.45020  -0.44807  -0.43654  -0.41704
 Alpha  occ. eigenvalues --   -0.40901  -0.39960  -0.39545  -0.39053  -0.39009
 Alpha  occ. eigenvalues --   -0.38576  -0.38558  -0.37059  -0.37000  -0.36763
 Alpha  occ. eigenvalues --   -0.35916  -0.35818  -0.35586  -0.35357  -0.33201
 Alpha  occ. eigenvalues --   -0.31697  -0.25393
 Alpha virt. eigenvalues --   -0.15760  -0.05736  -0.04859  -0.02565  -0.02001
 Alpha virt. eigenvalues --   -0.00537  -0.00038   0.00064   0.01092   0.01110
 Alpha virt. eigenvalues --    0.01698   0.01720   0.02105   0.02916   0.03345

 Mulliken charges:
               1
     1  C   -0.684839
     2  C   -0.295397
     3  C   -0.475149
     4  C   -0.672663
     5  C    0.848629
     6  C   -0.712917
     7  N   -0.475163
     8  C    1.319084
     9  C   -0.230470
    10  C   -0.316481
    11  C    1.495118
    12  C    0.987685
    13  C   -0.410998
    14  N   -0.471452
    15  C   -0.437109
    16  N   -0.478186
    17  C   -0.480920
    18  C   -0.552916
    19  H    0.149681
    20  H    0.150676
    21  H    0.150677
    22  H    0.140368
    23  H    0.140367
    24  H    0.162476
    25  H    0.162480
    26  H    0.175609
    27  H    0.175583
    28  H    0.144386
    29  H    0.164221
    30  H    0.165483
    31  H    0.162135
 Sum of Mulliken charges =  -0.00000

 Dipole moment (field-independent basis, Debye):
    X=             -6.6079    Y=             -2.6043    Z=             -0.0002  Tot=              7.1026
 Quadrupole moment (field-independent basis, Debye-Ang):
   XX=           -143.8266   YY=           -125.6836   ZZ=           -107.2102
   XY=             14.8780   XZ=             -0.0006   YZ=              0.0001

 Normal termination of Gaussian 16 at Sun Aug 24 22:26:39 2025.
