 Gaussian 16, Revision C.02,
 Gaussian 16:  ES64L-G16RevC.02  7-Dec-2021

 ----------------------------------------------------------
 # td=(50-50,nstates=3) b3lyp/6-31+g(d,p) geom=connectivity
 ----------------------------------------------------------

 -------------------
 Title Card Required
 -------------------
 Symbolic Z-matrix:
 Charge =  0 Multiplicity = 1

                         Standard orientation:
 ---------------------------------------------------------------------
 Center     Atomic      Atomic             Coordinates (Angstroms)
 Number     Number       Type             X           Y           Z
 ---------------------------------------------------------------------
      1          6           0       -4.181021    0.227373   -0.094874
      2          6           0       -2.792829   -0.323154    0.255670
      3          6           0       -2.358284    0.135275    1.656150
      4          8           0       -2.916898   -1.741584    0.211966
      5          6           0       -1.805125    0.175488   -0.842043
      6          7           0       -0.380235    0.129255   -0.494206
      7          6           0        0.488949    1.175401   -0.255018
      8          6           0        0.068878    2.518919   -0.258426
      9          7           0       -0.263354    3.638129   -0.258846
     10          6           0        1.763260    0.619189   -0.032966
     11          6           0        3.046445    1.143565    0.259131
     12          6           0        4.087067    0.251924    0.414183
     13          6           0        3.900013   -1.158506    0.290178
     14          6           0        2.663912   -1.700667    0.007900
     15          6           0        1.603216   -0.788109   -0.151256
     16          7           0        0.290469   -1.051344   -0.431076
     17          8           0       -0.284667   -2.179983   -0.620444
     18          1           0       -4.456775   -0.042031   -1.119593
     19          1           0       -4.917625   -0.220311    0.577563
     20          1           0       -4.222500    1.316035    0.012811
     21          1           0       -1.403141   -0.317309    1.941359
     22          1           0       -3.108330   -0.187729    2.382914
     23          1           0       -2.259846    1.225031    1.718549
     24          1           0       -2.036676   -2.132299    0.048823
     25          1           0       -1.943095   -0.425385   -1.745663
     26          1           0       -2.001374    1.223360   -1.076025
     27          1           0        3.198107    2.213530    0.355034
     28          1           0        5.080637    0.627921    0.637562
     29          1           0        4.754388   -1.814454    0.422821
     30          1           0        2.493715   -2.766291   -0.091219
 ---------------------------------------------------------------------

 SCF Done:  E(RB3LYP) =  -779.764714036     A.U. after   17 cycles

 Excitation energies and oscillator strengths:

 Excited State   1:      Triplet-A      1.6456 eV  753.42 nm  f=0.0000  <S**2>=2.000
      61 -> 62         0.70835
      61 <- 62         0.15150
 This state for optimization and/or second-order correction.
 Total Energy, E(TD-HF/TD-DFT) =  -779.704239009
 Copying the excited state density for this state as the 1-particle RhoCI density.

 Excited State   2:      Singlet-A      3.3291 eV  372.43 nm  f=0.1431  <S**2>=0.000
      61 -> 62         0.69293

 Excited State   3:      Triplet-A      3.4134 eV  363.23 nm  f=0.0000  <S**2>=2.000
      57 -> 62         0.13009
      58 -> 62         0.42568
      58 -> 63        -0.12639
      59 -> 62        -0.16356
      61 -> 63        -0.41609
      61 -> 64        -0.23119

 Excited State   4:      Triplet-A      3.7048 eV  334.66 nm  f=0.0000  <S**2>=2.000
      58 -> 62         0.15822
      59 -> 62         0.53186
      60 -> 62        -0.40347
      61 -> 64        -0.11406

 Excited State   5:      Singlet-A      4.1206 eV  300.89 nm  f=0.0203  <S**2>=0.000
      57 -> 62        -0.12039
      60 -> 62         0.68310
      61 -> 63         0.10083

 Excited State   6:      Singlet-A      4.4139 eV  280.90 nm  f=0.0182  <S**2>=0.000
      59 -> 62        -0.44339
      61 -> 63         0.50652
      61 -> 64        -0.15789

 The electronic state is 1-A.
 Alpha  occ. eigenvalues --  -19.17341 -19.14469 -14.53326 -14.48061 -14.36972
 Alpha  occ. eigenvalues --  -10.29370 -10.26892 -10.26868 -10.26675 -10.26337
 Alpha  occ. eigenvalues --  -10.24943 -10.23440 -10.23435 -10.23037 -10.22992
 Alpha  occ. eigenvalues --  -10.18967 -10.18908  -1.18086  -1.03943  -1.02340
 Alpha  occ. eigenvalues --   -0.93412  -0.91774  -0.86054  -0.83317  -0.79919
 Alpha  occ. eigenvalues --   -0.78304  -0.74352  -0.70680  -0.69185  -0.65956
 Alpha  occ. eigenvalues --   -0.65278  -0.59495  -0.58488  -0.56388  -0.55651
 Alpha  occ. eigenvalues --   -0.53897  -0.51330  -0.50027  -0.48214  -0.47697
 Alpha  occ. eigenvalues --   -0.47517  -0.46817  -0.44308  -0.43586  -0.42044
 Alpha  occ. eigenvalues --   -0.40712  -0.40001  -0.39861  -0.39399  -0.39390
 Alpha  occ. eigenvalues --   -0.38750  -0.37591  -0.37197  -0.36451  -0.35726
 Alpha  occ. eigenvalues --   -0.33273  -0.30579  -0.29894  -0.29184  -0.27582
 Alpha  occ. eigenvalues --   -0.22664
 Alpha virt. eigenvalues --   -0.09835  -0.03807  -0.02113  -0.02016  -0.00964
 Alpha virt. eigenvalues --   -0.00037   0.01325   0.01791   0.02115   0.02834
 Alpha virt. eigenvalues --    0.03539   0.04290   0.04440   0.04571   0.05543

 Mulliken charges:
               1
     1  C   -0.463736
     2  C    0.290128
     3  C   -0.378224
     4  O   -0.507075
     5  C   -0.335514
     6  N    0.075546
     7  C    0.725460
     8  C   -0.317471
     9  N   -0.581212
    10  C    2.288822
    11  C   -1.013677
    12  C   -0.113798
    13  C   -0.262407
    14  C   -0.487144
    15  C   -0.939249
    16  N   -0.254829
    17  O   -0.021909
    18  H    0.153590
    19  H    0.170781
    20  H    0.150880
    21  H    0.151737
    22  H    0.163210
    23  H    0.154056
    24  H    0.386831
    25  H    0.201570
    26  H    0.170327
    27  H    0.152760
    28  H    0.138294
    29  H    0.139254
    30  H    0.163001
 Sum of Mulliken charges =  -0.00000

 Dipole moment (field-independent basis, Debye):
    X=              3.2474    Y=              0.1385    Z=              0.2057  Tot=              3.2569
 Quadrupole moment (field-independent basis, Debye-Ang):
   XX=            -88.4011   YY=           -121.6470   ZZ=           -101.4184
   XY=             -7.2838   XZ=              3.1113   YZ=             -0.3098

 Normal termination of Gaussian 16 at Mon Aug 25 10:36:47 2025.
