 Gaussian 16, Revision C.02,
 Gaussian 16:  ES64L-G16RevC.02  7-Dec-2021

 ----------------------------------------------------------
 # td=(50-50,nstates=3) b3lyp/6-31+g(d,p) geom=connectivity
 ----------------------------------------------------------

 -------------------
 Title Card Required
 -------------------
 Symbolic Z-matrix:
 Charge =  0 Multiplicity = 1

                         Standard orientation:
 ---------------------------------------------------------------------
 Center     Atomic      Atomic             Coordinates (Angstroms)
 Number     Number       Type             X           Y           Z
 ---------------------------------------------------------------------
      1          6           0       -0.277096    0.194012    2.637522
      2          7           0       -1.228165    0.498371    1.590250
      3          6           0       -1.144212    1.622280    0.791380
      4          6           0       -0.303022    2.735583    0.917084
      5          6           0       -0.405042    3.755202   -0.040547
      6          6           0       -1.311364    3.674460   -1.101803
      7          6           0       -2.163740    2.558928   -1.208290
      8          6           0       -2.081321    1.542597   -0.266703
      9          6           0       -2.923319    0.290115   -0.057575
     10          6           0       -4.175518    0.653927    0.780489
     11          6           0       -3.384981   -0.407685   -1.342862
     12          6           0       -1.950094   -0.573324    0.847859
     13          6           0       -1.077510   -1.566570    0.157841
     14          6           0       -1.115505   -2.954185    0.260462
     15          8           0       -1.630841   -3.758001    1.012942
     16          8           0       -0.247050   -3.480789   -0.834103
     17          7           0       -0.077041   -2.461306   -1.781745
     18          7           0       -0.167508   -1.191222   -0.942423
     19          6           0        1.201468   -0.726178   -0.621068
     20          6           0        1.650820    0.458663   -1.192135
     21          6           0        2.948017    0.901077   -0.922475
     22          6           0        3.767148    0.134042   -0.095745
     23         17           0        5.398425    0.679024    0.244883
     24          6           0        3.310724   -1.058980    0.474085
     25          6           0        2.011703   -1.490817    0.215821
     26          1           0       -0.584635   -0.727232    3.137472
     27          1           0        0.749745    0.056353    2.267166
     28          1           0       -0.270510    0.999289    3.380797
     29          1           0        0.417421    2.808683    1.725353
     30          1           0        0.243119    4.623357    0.044824
     31          1           0       -1.368537    4.474673   -1.833012
     32          1           0       -2.887954    2.504758   -2.017958
     33          1           0       -4.805692    1.367699    0.239897
     34          1           0       -4.771205   -0.242598    0.989251
     35          1           0       -3.888224    1.106118    1.733858
     36          1           0       -4.126546    0.208893   -1.861896
     37          1           0       -2.573390   -0.583460   -2.060060
     38          1           0       -3.848528   -1.373425   -1.119436
     39          1           0       -2.538025   -1.170167    1.553920
     40          1           0        1.000073    1.057340   -1.824054
     41          1           0        3.310495    1.830799   -1.345350
     42          1           0        3.964164   -1.641916    1.113091
     43          1           0        1.638868   -2.409705    0.652254
     44          1           0       -0.586668   -0.474461   -1.549359
     45          1           0       -0.977996   -2.427880   -2.283091
 ---------------------------------------------------------------------

 SCF Done:  E(RB3LYP) =  -1510.88417030     A.U. after   18 cycles

 Excitation energies and oscillator strengths:

 Excited State   1:      Triplet-A      2.9122 eV  425.74 nm  f=0.0000  <S**2>=2.000
      93 -> 95        -0.27028
      94 -> 95         0.63621
 This state for optimization and/or second-order correction.
 Total Energy, E(TD-HF/TD-DFT) =  -1510.77714757
 Copying the excited state density for this state as the 1-particle RhoCI density.

 Excited State   2:      Singlet-A      3.0084 eV  412.13 nm  f=0.0001  <S**2>=0.000
      93 -> 95        -0.19350
      94 -> 95         0.67768

 Excited State   3:      Triplet-A      3.2320 eV  383.61 nm  f=0.0000  <S**2>=2.000
      93 -> 95         0.47577
      94 -> 95         0.21866
      94 -> 96         0.41128
      94 ->100        -0.11681

 Excited State   4:      Triplet-A      3.2482 eV  381.71 nm  f=0.0000  <S**2>=2.000
      93 -> 95        -0.38598
      94 -> 95        -0.15572
      94 -> 96         0.55062

 Excited State   5:      Singlet-A      3.2814 eV  377.84 nm  f=0.0037  <S**2>=0.000
      93 -> 95        -0.13345
      94 -> 96         0.69194

 Excited State   6:      Singlet-A      3.3165 eV  373.85 nm  f=0.0042  <S**2>=0.000
      93 -> 95         0.66286
      94 -> 95         0.19467
      94 -> 96         0.13589

 The electronic state is 1-A.
 Alpha  occ. eigenvalues -- -101.57556 -19.21214 -19.11935 -14.51069 -14.46639
 Alpha  occ. eigenvalues --  -14.35975 -10.29513 -10.28683 -10.27561 -10.24534
 Alpha  occ. eigenvalues --  -10.24405 -10.23876 -10.23816 -10.23741 -10.23369
 Alpha  occ. eigenvalues --  -10.22328 -10.22204 -10.20747 -10.20477 -10.20244
 Alpha  occ. eigenvalues --  -10.20229 -10.19906 -10.19643 -10.19352 -10.18725
 Alpha  occ. eigenvalues --   -9.49057  -7.25473  -7.24492  -7.24453  -1.14515
 Alpha  occ. eigenvalues --   -1.03506  -1.00881  -0.96962  -0.92218  -0.87108
 Alpha  occ. eigenvalues --   -0.85599  -0.83614  -0.82273  -0.79838  -0.78353
 Alpha  occ. eigenvalues --   -0.75556  -0.74876  -0.73949  -0.71115  -0.70152
 Alpha  occ. eigenvalues --   -0.67288  -0.66209  -0.63966  -0.62937  -0.60495
 Alpha  occ. eigenvalues --   -0.60274  -0.58589  -0.57281  -0.56061  -0.53896
 Alpha  occ. eigenvalues --   -0.51489  -0.51080  -0.50360  -0.49249  -0.49093
 Alpha  occ. eigenvalues --   -0.48098  -0.47499  -0.46937  -0.45796  -0.44943
 Alpha  occ. eigenvalues --   -0.44611  -0.44184  -0.43198  -0.42615  -0.42390
 Alpha  occ. eigenvalues --   -0.42268  -0.41418  -0.41008  -0.40482  -0.39948
 Alpha  occ. eigenvalues --   -0.39403  -0.38986  -0.37968  -0.37507  -0.36906
 Alpha  occ. eigenvalues --   -0.36113  -0.35525  -0.35458  -0.34463  -0.33698
 Alpha  occ. eigenvalues --   -0.33221  -0.30745  -0.30028  -0.29665  -0.27869
 Alpha  occ. eigenvalues --   -0.26209  -0.26040  -0.21013  -0.19828
 Alpha virt. eigenvalues --   -0.06197  -0.05408  -0.03134  -0.02378  -0.01134
 Alpha virt. eigenvalues --   -0.00630  -0.00266   0.00430   0.00491   0.01015
 Alpha virt. eigenvalues --    0.01590   0.02020   0.02370   0.02655   0.03130

 Mulliken charges:
               1
     1  C   -0.190553
     2  N    0.037634
     3  C   -0.520669
     4  C   -0.042381
     5  C   -0.209967
     6  C   -0.145155
     7  C   -0.272649
     8  C   -0.002474
     9  C    0.254992
    10  C   -0.448356
    11  C   -0.319835
    12  C   -0.182393
    13  C   -0.608572
    14  C    1.042076
    15  O   -0.529631
    16  O   -0.061016
    17  N   -0.211271
    18  N   -0.157223
    19  C   -0.751406
    20  C    0.482737
    21  C   -0.491258
    22  C    0.099334
    23  Cl   0.240350
    24  C   -0.421309
    25  C    0.157055
    26  H    0.153543
    27  H    0.144634
    28  H    0.144820
    29  H    0.114507
    30  H    0.118218
    31  H    0.119692
    32  H    0.119646
    33  H    0.148567
    34  H    0.153364
    35  H    0.167063
    36  H    0.152501
    37  H    0.090500
    38  H    0.168783
    39  H    0.148106
    40  H    0.133769
    41  H    0.151489
    42  H    0.157333
    43  H    0.176526
    44  H    0.353687
    45  H    0.335192
 Sum of Mulliken charges =  -0.00000

 Dipole moment (field-independent basis, Debye):
    X=              0.6710    Y=              4.7060    Z=             -2.5015  Tot=              5.3716
 Quadrupole moment (field-independent basis, Debye-Ang):
   XX=           -156.7945   YY=           -183.6263   ZZ=           -148.8639
   XY=             -4.9736   XZ=              9.6850   YZ=              1.6983

 Normal termination of Gaussian 16 at Tue Sep 30 12:25:48 2025.
