 Gaussian 16, Revision C.02,
 Gaussian 16:  ES64L-G16RevC.02  7-Dec-2021

 -------------------------------------
 # b3lyp/6-31+g(d,p) geom=connectivity
 -------------------------------------

 -------------------
 Title Card Required
 -------------------
 Symbolic Z-matrix:
 Charge =  0 Multiplicity = 1

                         Standard orientation:
 ---------------------------------------------------------------------
 Center     Atomic      Atomic             Coordinates (Angstroms)
 Number     Number       Type             X           Y           Z
 ---------------------------------------------------------------------
      1          6           0        7.195248   -1.358837    0.566909
      2          8           0        6.283692   -0.402907    0.022279
      3          6           0        4.968300   -0.684958   -0.019679
      4          6           0        4.405006   -1.842727    0.425486
      5          6           0        2.982420   -2.106478    0.364522
      6          6           0        2.470669   -3.294828    0.856824
      7          6           0        1.027074   -3.749577    0.898600
      8          6           0        3.395103   -4.237402    1.406312
      9          7           0        4.119076   -5.031261    1.861344
     10          6           0        2.161807   -1.046843   -0.235476
     11          8           0        0.840333   -1.307616   -0.313264
     12          6           0       -0.037457   -0.322215   -0.907552
     13          6           0       -1.424143   -0.870198   -0.868459
     14          6           0       -2.506046   -0.172834   -0.433014
     15          6           0       -3.817250   -0.752146   -0.467136
     16          6           0       -4.944424   -1.222918   -0.485323
     17         14           0       -6.656040   -1.925761   -0.513282
     18          6           0       -6.668061   -3.494663    0.537997
     19          6           0       -7.832937   -0.633744    0.199780
     20          6           0       -7.102137   -2.321561   -2.305051
     21          6           0       -2.411561    1.170091    0.063458
     22          6           0       -2.354681    2.316719    0.482108
     23         14           0       -2.280048    4.063303    1.101495
     24          6           0       -0.479940    4.474419    1.489545
     25          6           0       -2.951457    5.189112   -0.256353
     26          6           0       -3.346545    4.174436    2.655466
     27          6           0        2.729871    0.116566   -0.676552
     28          6           0        4.139921    0.374931   -0.592877
     29          6           0        4.656857    1.588606   -1.043231
     30          6           0        6.027153    1.990709   -1.031829
     31          7           0        7.107992    2.424722   -1.072777
     32          6           0        3.768476    2.573955   -1.577545
     33          7           0        3.024958    3.362582   -2.006789
     34          1           0        8.178430   -0.896776    0.485933
     35          1           0        6.962986   -1.562728    1.618187
     36          1           0        7.171196   -2.290998   -0.008621
     37          1           0        5.033060   -2.612200    0.853728
     38          1           0        0.398263   -3.027752    1.425772
     39          1           0        0.617747   -3.852794   -0.110792
     40          1           0        0.956138   -4.714705    1.402611
     41          1           0        0.032949    0.620395   -0.356095
     42          1           0        0.289111   -0.152256   -1.943902
     43          1           0       -1.569713   -1.878476   -1.244612
     44          1           0       -7.668701   -3.942806    0.550930
     45          1           0       -5.970066   -4.241360    0.144200
     46          1           0       -6.381639   -3.279922    1.573134
     47          1           0       -8.863247   -1.008763    0.202834
     48          1           0       -7.811487    0.288788   -0.390222
     49          1           0       -7.563471   -0.379091    1.230398
     50          1           0       -7.069774   -1.421936   -2.928929
     51          1           0       -6.408817   -3.052886   -2.734295
     52          1           0       -8.113979   -2.739369   -2.367493
     53          1           0       -0.393290    5.500274    1.866779
     54          1           0       -0.074265    3.802169    2.253491
     55          1           0        0.150229    4.393142    0.597414
     56          1           0       -2.934883    6.235805    0.069826
     57          1           0       -3.984887    4.930782   -0.510946
     58          1           0       -2.349761    5.111441   -1.168097
     59          1           0       -4.386397    3.904572    2.442210
     60          1           0       -2.978749    3.502108    3.438006
     61          1           0       -3.337730    5.195036    3.056148
     62          1           0        2.111978    0.890916   -1.108721
 ---------------------------------------------------------------------

 SCF Done:  E(RB3LYP) =  -1901.87946127     A.U. after   17 cycles

 The electronic state is 1-A.
 Alpha  occ. eigenvalues --  -66.14927 -66.14801 -19.23432 -19.22381 -14.36632
 Alpha  occ. eigenvalues --  -14.36110 -14.34961 -10.31000 -10.30109 -10.28540
 Alpha  occ. eigenvalues --  -10.28163 -10.27670 -10.27495 -10.26734 -10.26712
 Alpha  occ. eigenvalues --  -10.26597 -10.25608 -10.25507 -10.24713 -10.23726
 Alpha  occ. eigenvalues --  -10.23265 -10.23178 -10.22079 -10.21359 -10.21253
 Alpha  occ. eigenvalues --  -10.19195 -10.18956 -10.17742 -10.17711 -10.17643
 Alpha  occ. eigenvalues --  -10.17543 -10.17437 -10.17389  -5.29212  -5.29084
 Alpha  occ. eigenvalues --   -3.65219  -3.65101  -3.65036  -3.65034  -3.64903
 Alpha  occ. eigenvalues --   -3.64900  -1.11944  -1.11186  -0.93664  -0.93448
 Alpha  occ. eigenvalues --   -0.91491  -0.90684  -0.87080  -0.86437  -0.82119
 Alpha  occ. eigenvalues --   -0.80710  -0.77979  -0.76648  -0.76048  -0.73958
 Alpha  occ. eigenvalues --   -0.72686  -0.72330  -0.71485  -0.69455  -0.69154
 Alpha  occ. eigenvalues --   -0.69105  -0.68932  -0.68853  -0.67158  -0.63591
 Alpha  occ. eigenvalues --   -0.63109  -0.60078  -0.58388  -0.57586  -0.56398
 Alpha  occ. eigenvalues --   -0.54473  -0.53340  -0.52408  -0.51630  -0.50849
 Alpha  occ. eigenvalues --   -0.50316  -0.49576  -0.48507  -0.48145  -0.46478
 Alpha  occ. eigenvalues --   -0.45901  -0.44698  -0.43894  -0.43360  -0.43176
 Alpha  occ. eigenvalues --   -0.43041  -0.42310  -0.42021  -0.41976  -0.41798
 Alpha  occ. eigenvalues --   -0.41723  -0.41483  -0.40969  -0.40499  -0.40425
 Alpha  occ. eigenvalues --   -0.40270  -0.40155  -0.39348  -0.39335  -0.39104
 Alpha  occ. eigenvalues --   -0.38897  -0.38794  -0.38493  -0.38270  -0.38049
 Alpha  occ. eigenvalues --   -0.37445  -0.37241  -0.36583  -0.36281  -0.35633
 Alpha  occ. eigenvalues --   -0.35367  -0.35329  -0.33954  -0.33233  -0.32691
 Alpha  occ. eigenvalues --   -0.32573  -0.32424  -0.32390  -0.31932  -0.29485
 Alpha  occ. eigenvalues --   -0.28786  -0.27870  -0.26367  -0.25226  -0.23942
 Alpha virt. eigenvalues --   -0.14086  -0.08184  -0.04679  -0.02252  -0.01997
 Alpha virt. eigenvalues --   -0.01773  -0.01458  -0.01235  -0.01160  -0.00111
 Alpha virt. eigenvalues --    0.00060   0.00138   0.00707   0.00825   0.01164

 Mulliken charges:
               1
     1  C   -0.128545
     2  O   -0.334345
     3  C   -0.425889
     4  C   -0.732264
     5  C    0.682190
     6  C    1.458385
     7  C   -0.538692
     8  C   -0.374155
     9  N   -0.494705
    10  C    0.023006
    11  O   -0.328384
    12  C    0.454594
    13  C   -0.705883
    14  C   -0.408694
    15  C    0.846256
    16  C   -0.939167
    17  Si   1.231135
    18  C   -0.679763
    19  C   -0.674776
    20  C   -0.678265
    21  C    0.207664
    22  C   -0.909172
    23  Si   1.225315
    24  C   -0.709753
    25  C   -0.673445
    26  C   -0.673909
    27  C   -0.333390
    28  C    0.108567
    29  C    1.408675
    30  C   -0.052140
    31  N   -0.524445
    32  C   -0.658559
    33  N   -0.458630
    34  H    0.169555
    35  H    0.155967
    36  H    0.155742
    37  H    0.148340
    38  H    0.190002
    39  H    0.182071
    40  H    0.165075
    41  H    0.163958
    42  H    0.163537
    43  H    0.145299
    44  H    0.163369
    45  H    0.165422
    46  H    0.167493
    47  H    0.163296
    48  H    0.168439
    49  H    0.168355
    50  H    0.167987
    51  H    0.165733
    52  H    0.163035
    53  H    0.166664
    54  H    0.163833
    55  H    0.178131
    56  H    0.163973
    57  H    0.166830
    58  H    0.170549
    59  H    0.168023
    60  H    0.166244
    61  H    0.163416
    62  H    0.150846
 Sum of Mulliken charges =  -0.00000

 Dipole moment (field-independent basis, Debye):
    X=             -6.1530    Y=             -3.1679    Z=              1.2126  Tot=              7.0260
 Quadrupole moment (field-independent basis, Debye-Ang):
   XX=           -224.7602   YY=           -233.2432   ZZ=           -218.9917
   XY=            -14.2779   XZ=              7.8985   YZ=             20.9995

 Normal termination of Gaussian 16 at Sun Aug 24 22:19:05 2025.
