 Gaussian 16, Revision C.02,
 Gaussian 16:  ES64L-G16RevC.02  7-Dec-2021

 ----------------------------------------------------------
 # td=(50-50,nstates=3) b3lyp/6-31+g(d,p) geom=connectivity
 ----------------------------------------------------------

 -------------------
 Title Card Required
 -------------------
 Symbolic Z-matrix:
 Charge =  0 Multiplicity = 1

                         Standard orientation:
 ---------------------------------------------------------------------
 Center     Atomic      Atomic             Coordinates (Angstroms)
 Number     Number       Type             X           Y           Z
 ---------------------------------------------------------------------
      1          6           0        3.577874   -3.130162   -0.735751
      2          7           0        2.960146   -1.835513   -0.462616
      3          6           0        2.060070   -1.726149    0.644360
      4          8           0        0.818222   -1.170492    0.203838
      5          6           0       -0.087362   -0.941578    1.282041
      6          6           0       -1.347367   -0.344421    0.714409
      7          6           0       -1.458644    1.027541    0.477810
      8          9           0       -0.436240    1.843800    0.797257
      9          6           0       -2.601310    1.596617   -0.077175
     10          9           0       -2.675830    2.918012   -0.287085
     11          6           0       -3.675943    0.776577   -0.417278
     12          9           0       -4.780882    1.308119   -0.951137
     13          6           0       -3.598521   -0.597201   -0.197532
     14          9           0       -4.632172   -1.385740   -0.522999
     15          6           0       -2.440673   -1.136192    0.357712
     16          9           0       -2.397154   -2.467362    0.555990
     17          7           0        3.723123   -0.775515   -0.846672
     18          6           0        3.395619    0.424033   -0.532273
     19          6           0        4.281063    1.552597   -1.011062
     20          6           0        4.812944    2.351434    0.102300
     21          7           0        5.217385    2.977035    0.993411
     22          1           0        4.084088   -3.069582   -1.699332
     23          1           0        4.313808   -3.417850    0.029824
     24          1           0        2.800461   -3.895908   -0.794603
     25          1           0        1.893096   -2.726675    1.064368
     26          1           0        2.487093   -1.075793    1.430585
     27          1           0       -0.321594   -1.884193    1.794048
     28          1           0        0.354536   -0.251779    2.014460
     29          1           0        2.495837    0.688254    0.024529
     30          1           0        5.114235    1.135765   -1.585531
     31          1           0        3.722080    2.229631   -1.671509
 ---------------------------------------------------------------------

 SCF Done:  E(RB3LYP) =  -1201.91996210     A.U. after   14 cycles

 Excitation energies and oscillator strengths:

 Excited State   1:      Triplet-A      3.4095 eV  363.64 nm  f=0.0000  <S**2>=2.000
      78 -> 79        -0.17253
      78 -> 82         0.65422
 This state for optimization and/or second-order correction.
 Total Energy, E(TD-HF/TD-DFT) =  -1201.79466558
 Copying the excited state density for this state as the 1-particle RhoCI density.

 Excited State   2:      Triplet-A      3.6873 eV  336.25 nm  f=0.0000  <S**2>=2.000
      75 -> 79         0.46063
      76 -> 79        -0.19681
      77 -> 81         0.46034
      78 -> 79        -0.14224

 Excited State   3:      Triplet-A      4.3958 eV  282.05 nm  f=0.0000  <S**2>=2.000
      77 -> 81         0.25860
      78 -> 79         0.63546
      78 -> 82         0.15189

 Excited State   4:      Singlet-A      4.4178 eV  280.65 nm  f=0.0572  <S**2>=0.000
      78 -> 79         0.70541

 Excited State   5:      Singlet-A      4.7902 eV  258.83 nm  f=0.0018  <S**2>=0.000
      78 -> 80         0.70234

 Excited State   6:      Singlet-A      4.9191 eV  252.05 nm  f=0.0001  <S**2>=0.000
      77 -> 79         0.14987
      78 -> 81         0.68719

 The electronic state is 1-A.
 Alpha  occ. eigenvalues --  -24.77329 -24.76911 -24.76903 -24.76834 -24.76811
 Alpha  occ. eigenvalues --  -19.19265 -14.40450 -14.39253 -14.34565 -10.33718
 Alpha  occ. eigenvalues --  -10.33187 -10.33164 -10.33063 -10.33062 -10.29754
 Alpha  occ. eigenvalues --  -10.28317 -10.25965 -10.24957 -10.24501 -10.23997
 Alpha  occ. eigenvalues --  -10.23458  -1.29008  -1.28264  -1.27777  -1.26940
 Alpha  occ. eigenvalues --   -1.26666  -1.08058  -1.02943  -0.92960  -0.91426
 Alpha  occ. eigenvalues --   -0.87915  -0.83327  -0.80653  -0.79037  -0.76143
 Alpha  occ. eigenvalues --   -0.71947  -0.68944  -0.68296  -0.66693  -0.62035
 Alpha  occ. eigenvalues --   -0.61912  -0.59982  -0.59030  -0.57216  -0.56548
 Alpha  occ. eigenvalues --   -0.56216  -0.55128  -0.54903  -0.53603  -0.53123
 Alpha  occ. eigenvalues --   -0.52041  -0.51528  -0.50846  -0.49237  -0.49227
 Alpha  occ. eigenvalues --   -0.48748  -0.48080  -0.46912  -0.46805  -0.46204
 Alpha  occ. eigenvalues --   -0.45308  -0.44162  -0.43615  -0.42995  -0.42679
 Alpha  occ. eigenvalues --   -0.41326  -0.40996  -0.38461  -0.38001  -0.37150
 Alpha  occ. eigenvalues --   -0.36635  -0.33907  -0.33445  -0.30680  -0.29482
 Alpha  occ. eigenvalues --   -0.29269  -0.28363  -0.24171
 Alpha virt. eigenvalues --   -0.06045  -0.04822  -0.04268  -0.02736  -0.00971
 Alpha virt. eigenvalues --    0.00052   0.00413   0.01321   0.01851   0.02229
 Alpha virt. eigenvalues --    0.02405   0.02532   0.03002   0.04177   0.04214

 Mulliken charges:
               1
     1  C   -0.259809
     2  N    0.164009
     3  C   -0.158187
     4  O   -0.312163
     5  C   -0.089921
     6  C    1.202855
     7  C   -0.462478
     8  F   -0.334895
     9  C    0.447753
    10  F   -0.338844
    11  C    0.381938
    12  F   -0.331374
    13  C    0.493919
    14  F   -0.339257
    15  C   -0.456819
    16  F   -0.338202
    17  N   -0.209471
    18  C    0.008635
    19  C   -0.324588
    20  C    0.197630
    21  N   -0.498217
    22  H    0.171335
    23  H    0.144656
    24  H    0.152381
    25  H    0.124827
    26  H    0.124463
    27  H    0.141670
    28  H    0.140496
    29  H    0.156422
    30  H    0.205236
    31  H    0.196001
 Sum of Mulliken charges =  -0.00000

 Dipole moment (field-independent basis, Debye):
    X=             -0.7967    Y=             -4.1129    Z=             -0.0867  Tot=              4.1903
 Quadrupole moment (field-independent basis, Debye-Ang):
   XX=           -144.3575   YY=           -127.2127   ZZ=           -116.6711
   XY=            -19.3911   XZ=            -13.7887   YZ=            -10.2169

 Normal termination of Gaussian 16 at Sun Aug 24 22:21:02 2025.
