 Gaussian 16, Revision C.02,
 Gaussian 16:  ES64L-G16RevC.02  7-Dec-2021

 ----------------------------------------------------------
 # td=(50-50,nstates=3) b3lyp/6-31+g(d,p) geom=connectivity
 ----------------------------------------------------------

 -------------------
 Title Card Required
 -------------------
 Symbolic Z-matrix:
 Charge =  0 Multiplicity = 1

                         Standard orientation:
 ---------------------------------------------------------------------
 Center     Atomic      Atomic             Coordinates (Angstroms)
 Number     Number       Type             X           Y           Z
 ---------------------------------------------------------------------
      1         17           0        4.640575   -1.798807    1.115889
      2          6           0        3.646708   -0.814708    0.043548
      3          6           0        4.228445    0.256554   -0.634696
      4          6           0        3.425180    1.016428   -1.486702
      5          6           0        2.071636    0.711885   -1.650274
      6          6           0        1.489593   -0.362052   -0.963963
      7          6           0        0.022478   -0.708983   -1.118496
      8          6           0       -0.859681   -0.305423    0.102747
      9          6           0       -0.949645    1.200503    0.341651
     10          6           0       -0.881886    1.688427    1.655331
     11          6           0       -0.995210    3.052881    1.930036
     12          6           0       -1.178938    3.964494    0.887554
     13          6           0       -1.243607    3.496121   -0.426700
     14          6           0       -1.127604    2.129468   -0.694702
     15          6           0       -2.231489   -0.979390    0.014187
     16          6           0       -2.511790   -2.086623    0.828173
     17          6           0       -3.738041   -2.752687    0.747553
     18          6           0       -4.710545   -2.320621   -0.156452
     19          6           0       -4.445388   -1.217553   -0.973058
     20          6           0       -3.219606   -0.554019   -0.886482
     21          6           0        2.298989   -1.130732   -0.112861
     22          1           0        5.280149    0.484120   -0.501350
     23          1           0        3.861012    1.852397   -2.025952
     24          1           0        1.462828    1.315569   -2.316334
     25          1           0       -0.374658   -0.255366   -2.032306
     26          1           0       -0.079666   -1.792416   -1.247796
     27          1           0       -0.368973   -0.728223    0.987252
     28          1           0       -0.738052    0.988294    2.474741
     29          1           0       -0.936351    3.402330    2.956980
     30          1           0       -1.265614    5.026866    1.095935
     31          1           0       -1.380777    4.194476   -1.247733
     32          1           0       -1.172671    1.795205   -1.726966
     33          1           0       -1.762430   -2.431180    1.537258
     34          1           0       -3.931678   -3.605267    1.392498
     35          1           0       -5.665561   -2.833724   -0.221771
     36          1           0       -5.196260   -0.868315   -1.676384
     37          1           0       -3.041859    0.310861   -1.517889
     38          1           0        1.883189   -1.979724    0.421356
 ---------------------------------------------------------------------

 SCF Done:  E(RB3LYP) =  -1232.62436105     A.U. after   16 cycles

 Excitation energies and oscillator strengths:

 Excited State   1:      Triplet-A      3.6341 eV  341.17 nm  f=0.0000  <S**2>=2.000
      72 -> 78        -0.28796
      72 -> 80         0.12668
      72 -> 81         0.10012
      74 -> 78         0.12037
      75 -> 78         0.23070
      76 -> 79        -0.21328
      76 -> 80         0.30400
      76 -> 82         0.11354
      77 -> 79        -0.17117
      77 -> 80         0.21901
 This state for optimization and/or second-order correction.
 Total Energy, E(TD-HF/TD-DFT) =  -1232.49081197
 Copying the excited state density for this state as the 1-particle RhoCI density.

 Excited State   2:      Triplet-A      3.6912 eV  335.89 nm  f=0.0000  <S**2>=2.000
      72 -> 83        -0.13846
      73 -> 78        -0.11992
      73 -> 80        -0.11703
      73 -> 82         0.23688
      74 -> 78        -0.10603
      74 -> 81        -0.26506
      75 -> 83        -0.22005
      76 -> 79        -0.19510
      76 -> 82        -0.12036
      77 -> 78         0.18481
      77 -> 79         0.26631
      77 -> 80         0.19123

 Excited State   3:      Triplet-A      3.7256 eV  332.79 nm  f=0.0000  <S**2>=2.000
      72 -> 78        -0.12513
      72 -> 79        -0.13486
      73 -> 81         0.26872
      74 -> 81        -0.14628
      74 -> 82        -0.24914
      75 -> 78        -0.14264
      75 -> 79        -0.22217
      75 -> 80        -0.15897
      76 -> 81        -0.10122
      76 -> 83        -0.12531
      77 -> 78         0.11367
      77 -> 83         0.27459

 Excited State   4:      Singlet-A      5.0397 eV  246.02 nm  f=0.0246  <S**2>=0.000
      72 -> 79        -0.15348
      72 -> 80         0.19456
      75 -> 79         0.10351
      75 -> 80        -0.18320
      76 -> 78         0.30440
      76 -> 79        -0.10839
      77 -> 78         0.45449
      77 -> 79        -0.13255

 Excited State   5:      Singlet-A      5.1592 eV  240.32 nm  f=0.0031  <S**2>=0.000
      73 -> 79        -0.14619
      73 -> 83         0.12180
      74 -> 78        -0.11658
      74 -> 79        -0.18416
      74 -> 80        -0.17488
      75 -> 79         0.15891
      75 -> 82         0.10678
      76 -> 78         0.34751
      77 -> 78        -0.23498
      77 -> 80        -0.10737
      77 -> 81        -0.25697
      77 -> 82         0.15824

 Excited State   6:      Singlet-A      5.1949 eV  238.66 nm  f=0.0091  <S**2>=0.000
      72 -> 81        -0.10762
      73 -> 78        -0.16331
      73 -> 79        -0.17889
      74 -> 78         0.18570
      74 -> 79         0.13147
      74 -> 83         0.13950
      75 -> 78        -0.16337
      75 -> 81        -0.20670
      76 -> 78         0.15146
      76 -> 81        -0.10514
      77 -> 78        -0.13677
      77 -> 79        -0.17599
      77 -> 80        -0.11501
      77 -> 81         0.33263
      77 -> 82         0.16781

 The electronic state is 1-A.
 Alpha  occ. eigenvalues -- -101.55404 -10.25939 -10.21518 -10.21476 -10.20863
 Alpha  occ. eigenvalues --  -10.20820 -10.20805 -10.20770 -10.20764 -10.20467
 Alpha  occ. eigenvalues --  -10.20225 -10.20044 -10.20014 -10.19992 -10.19931
 Alpha  occ. eigenvalues --  -10.19888 -10.19861 -10.19838 -10.19828 -10.19726
 Alpha  occ. eigenvalues --  -10.19696  -9.46912  -7.23313  -7.22350  -7.22323
 Alpha  occ. eigenvalues --   -0.89580  -0.87432  -0.85845  -0.84545  -0.81239
 Alpha  occ. eigenvalues --   -0.77441  -0.75391  -0.75182  -0.74932  -0.74218
 Alpha  occ. eigenvalues --   -0.71603  -0.66072  -0.61926  -0.61688  -0.60934
 Alpha  occ. eigenvalues --   -0.60460  -0.59232  -0.57202  -0.52694  -0.52068
 Alpha  occ. eigenvalues --   -0.51486  -0.48740  -0.47471  -0.47124  -0.46229
 Alpha  occ. eigenvalues --   -0.45703  -0.45152  -0.43825  -0.43609  -0.43052
 Alpha  occ. eigenvalues --   -0.42541  -0.42408  -0.41796  -0.40252  -0.39107
 Alpha  occ. eigenvalues --   -0.37887  -0.37351  -0.36997  -0.36513  -0.35955
 Alpha  occ. eigenvalues --   -0.35439  -0.34765  -0.34091  -0.33303  -0.33110
 Alpha  occ. eigenvalues --   -0.31585  -0.26609  -0.26137  -0.25920  -0.25602
 Alpha  occ. eigenvalues --   -0.25140  -0.24457
 Alpha virt. eigenvalues --   -0.03169  -0.02584  -0.02297  -0.02046  -0.01338
 Alpha virt. eigenvalues --   -0.00653  -0.00611   0.00448   0.00649   0.01059
 Alpha virt. eigenvalues --    0.01420   0.02175   0.02886   0.02997   0.03253

 Mulliken charges:
               1
     1  Cl   0.221492
     2  C    0.134768
     3  C   -0.282071
     4  C   -0.202534
     5  C    0.005164
     6  C    0.444151
     7  C   -0.764300
     8  C   -0.237020
     9  C    0.315910
    10  C   -0.052335
    11  C   -0.186376
    12  C   -0.071713
    13  C   -0.166939
    14  C   -0.358548
    15  C    0.156565
    16  C   -0.155305
    17  C   -0.270472
    18  C   -0.012722
    19  C   -0.598141
    20  C    0.179280
    21  C   -0.175357
    22  H    0.142547
    23  H    0.132129
    24  H    0.109952
    25  H    0.135121
    26  H    0.155459
    27  H    0.108797
    28  H    0.107306
    29  H    0.125759
    30  H    0.124133
    31  H    0.122160
    32  H    0.090185
    33  H    0.109876
    34  H    0.125664
    35  H    0.124358
    36  H    0.125286
    37  H    0.108560
    38  H    0.129211
 Sum of Mulliken charges =  -0.00000

 Dipole moment (field-independent basis, Debye):
    X=             -1.4094    Y=              1.0869    Z=             -1.0062  Tot=              2.0445
 Quadrupole moment (field-independent basis, Debye-Ang):
   XX=           -136.0583   YY=           -126.0459   ZZ=           -127.0615
   XY=              7.6109   XZ=             -0.9214   YZ=             -4.9628

 Normal termination of Gaussian 16 at Tue Sep 30 12:05:31 2025.
