 Gaussian 16, Revision C.02,
 Gaussian 16:  ES64L-G16RevC.02  7-Dec-2021

 ----------------------------------------------------------
 # td=(50-50,nstates=3) b3lyp/6-31+g(d,p) geom=connectivity
 ----------------------------------------------------------

 -------------------
 Title Card Required
 -------------------
 Symbolic Z-matrix:
 Charge =  0 Multiplicity = 1

                         Standard orientation:
 ---------------------------------------------------------------------
 Center     Atomic      Atomic             Coordinates (Angstroms)
 Number     Number       Type             X           Y           Z
 ---------------------------------------------------------------------
      1          6           0       -5.833069   -1.526090   -0.797679
      2          8           0       -5.009481   -0.427852   -1.236860
      3          6           0       -3.814203   -0.277815   -0.672368
      4          6           0       -2.838741    0.651608   -0.924556
      5          6           0       -1.756825    0.339874   -0.040848
      6          6           0       -0.443185    1.015833    0.052084
      7          6           0        0.718588    0.241790   -0.092850
      8          6           0        1.993912    0.814801   -0.030709
      9          6           0        3.221975    0.007809   -0.192762
     10          7           0        4.388001    0.521366   -0.287372
     11          6           0        5.449713   -0.478290   -0.330047
     12          6           0        4.874975   -1.842504   -0.772252
     13         16           0        3.119631   -1.799663   -0.231734
     14          6           0        2.097351    2.197765    0.185997
     15          6           0        0.949265    2.967223    0.336591
     16          6           0       -0.336195    2.407520    0.273556
     17          6           0       -1.545158    3.293618    0.466176
     18          6           0       -2.161625   -0.758473    0.691198
     19          6           0       -1.571325   -1.500486    1.732102
     20          7           0       -1.086449   -2.115286    2.597326
     21          8           0       -3.442317   -1.140486    0.297057
     22          1           0       -6.742577   -1.451720   -1.391855
     23          1           0       -5.333412   -2.480387   -0.984682
     24          1           0       -6.065133   -1.431817    0.266478
     25          1           0       -2.881400    1.431676   -1.667785
     26          1           0        0.614444   -0.822017   -0.280320
     27          1           0        6.245163   -0.147618   -1.005485
     28          1           0        5.884694   -0.547568    0.677722
     29          1           0        4.907946   -1.966892   -1.858518
     30          1           0        5.383188   -2.685081   -0.299785
     31          1           0        3.081987    2.648717    0.238385
     32          1           0        1.046917    4.034139    0.519582
     33          1           0       -1.256205    4.238089    0.935056
     34          1           0       -2.025866    3.537070   -0.488873
     35          1           0       -2.303051    2.817050    1.094790
 ---------------------------------------------------------------------

 SCF Done:  E(RB3LYP) =  -1276.27693058     A.U. after   16 cycles

 Excitation energies and oscillator strengths:

 Excited State   1:      Triplet-A      2.8617 eV  433.25 nm  f=0.0000  <S**2>=2.000
      76 -> 79         0.20438
      76 -> 80         0.10580
      77 -> 80         0.26873
      78 -> 79         0.52212
      78 -> 80        -0.22353
 This state for optimization and/or second-order correction.
 Total Energy, E(TD-HF/TD-DFT) =  -1276.17176380
 Copying the excited state density for this state as the 1-particle RhoCI density.

 Excited State   2:      Triplet-A      3.0130 eV  411.50 nm  f=0.0000  <S**2>=2.000
      76 -> 79         0.24697
      77 -> 79         0.45294
      78 -> 80         0.39780
      78 -> 81         0.14755

 Excited State   3:      Triplet-A      3.5778 eV  346.53 nm  f=0.0000  <S**2>=2.000
      75 -> 79        -0.10741
      75 -> 80         0.14132
      75 -> 81        -0.17121
      76 -> 79         0.45512
      76 -> 80         0.11242
      77 -> 79        -0.26247
      77 -> 80        -0.27502

 Excited State   4:      Singlet-A      4.0371 eV  307.12 nm  f=0.0173  <S**2>=0.000
      76 -> 79        -0.10925
      77 -> 79         0.26427
      78 -> 79         0.62937
      78 -> 80         0.12166

 Excited State   5:      Singlet-A      4.0901 eV  303.13 nm  f=0.0178  <S**2>=0.000
      77 -> 79         0.63536
      78 -> 79        -0.23692
      78 -> 80        -0.15846

 Excited State   6:      Singlet-A      4.3845 eV  282.78 nm  f=0.0363  <S**2>=0.000
      75 -> 79        -0.18128
      76 -> 79        -0.20067
      77 -> 80         0.40569
      78 -> 79        -0.13582
      78 -> 80         0.46922
      78 -> 81        -0.10195

 The electronic state is 1-A.
 Alpha  occ. eigenvalues --  -88.89032 -19.25462 -19.22888 -14.34594 -14.33578
 Alpha  occ. eigenvalues --  -10.33363 -10.28179 -10.26956 -10.26501 -10.23942
 Alpha  occ. eigenvalues --  -10.23766 -10.22899 -10.22801 -10.22285 -10.22220
 Alpha  occ. eigenvalues --  -10.21725 -10.21138 -10.21038 -10.20540 -10.20424
 Alpha  occ. eigenvalues --  -10.19838  -7.95061  -5.91545  -5.91199  -5.90589
 Alpha  occ. eigenvalues --   -1.16640  -1.09785  -0.95123  -0.91051  -0.88490
 Alpha  occ. eigenvalues --   -0.84384  -0.80304  -0.79938  -0.78566  -0.76111
 Alpha  occ. eigenvalues --   -0.74529  -0.74102  -0.69976  -0.65595  -0.63043
 Alpha  occ. eigenvalues --   -0.62446  -0.61093  -0.60827  -0.57735  -0.55397
 Alpha  occ. eigenvalues --   -0.53546  -0.52105  -0.49549  -0.49312  -0.48339
 Alpha  occ. eigenvalues --   -0.47926  -0.46827  -0.46389  -0.45557  -0.44748
 Alpha  occ. eigenvalues --   -0.43765  -0.42924  -0.42371  -0.42183  -0.40415
 Alpha  occ. eigenvalues --   -0.40116  -0.39225  -0.38696  -0.38435  -0.38168
 Alpha  occ. eigenvalues --   -0.36854  -0.36353  -0.35894  -0.35241  -0.34339
 Alpha  occ. eigenvalues --   -0.34204  -0.33212  -0.30977  -0.27086  -0.26456
 Alpha  occ. eigenvalues --   -0.25345  -0.23300  -0.22889
 Alpha virt. eigenvalues --   -0.06240  -0.04751  -0.02058  -0.01228  -0.00323
 Alpha virt. eigenvalues --    0.00279   0.00415   0.01208   0.01547   0.02005
 Alpha virt. eigenvalues --    0.02376   0.02479   0.02639   0.03447   0.03661

 Mulliken charges:
               1
     1  C   -0.170804
     2  O   -0.393824
     3  C    0.127410
     4  C    0.100958
     5  C    0.047869
     6  C   -0.482242
     7  C   -0.439044
     8  C    0.458447
     9  C   -0.058569
    10  N   -0.085919
    11  C   -0.175223
    12  C   -0.445390
    13  S    0.165032
    14  C   -0.231172
    15  C   -0.117644
    16  C    0.397499
    17  C   -0.610144
    18  C    0.520084
    19  C    0.086297
    20  N   -0.587728
    21  O   -0.320941
    22  H    0.159574
    23  H    0.165505
    24  H    0.165844
    25  H    0.145319
    26  H    0.136287
    27  H    0.147715
    28  H    0.157269
    29  H    0.187450
    30  H    0.180539
    31  H    0.157973
    32  H    0.125952
    33  H    0.151845
    34  H    0.164373
    35  H    0.169402
 Sum of Mulliken charges =  -0.00000

 Dipole moment (field-independent basis, Debye):
    X=             -2.3105    Y=              1.4582    Z=             -3.3308  Tot=              4.3080
 Quadrupole moment (field-independent basis, Debye-Ang):
   XX=            -94.7535   YY=           -126.0904   ZZ=           -141.4600
   XY=             -2.7302   XZ=              1.8684   YZ=             11.0706

 Normal termination of Gaussian 16 at Mon Aug 25 10:32:11 2025.
