 Gaussian 16, Revision C.02,
 Gaussian 16:  ES64L-G16RevC.02  7-Dec-2021

 ----------------------------------------------------------
 # td=(50-50,nstates=3) b3lyp/6-31+g(d,p) geom=connectivity
 ----------------------------------------------------------

 -------------------
 Title Card Required
 -------------------
 Symbolic Z-matrix:
 Charge =  0 Multiplicity = 1

                         Standard orientation:
 ---------------------------------------------------------------------
 Center     Atomic      Atomic             Coordinates (Angstroms)
 Number     Number       Type             X           Y           Z
 ---------------------------------------------------------------------
      1          6           0        6.413492   -1.894300   -2.073907
      2          7           0        5.165913   -1.325574   -1.567659
      3          6           0        4.321146   -0.611649   -2.434540
      4          6           0        3.170105   -0.028577   -2.068027
      5          6           0        2.596318   -0.134363   -0.671792
      6          6           0        1.313316   -0.962843   -0.711448
      7          6           0        0.102189   -0.454462   -0.513421
      8          6           0       -1.043157    0.037983   -0.325603
      9          6           0       -2.266820    0.558673   -0.123066
     10          6           0       -3.452269   -0.287222   -0.183810
     11          6           0       -4.789314   -0.031783   -0.388169
     12          6           0       -5.445827   -1.297173   -0.388218
     13          6           0       -4.488525   -2.263284   -0.185325
     14         14           0       -4.522519   -4.143685   -0.039810
     15          6           0       -6.321778   -4.682825   -0.247103
     16          6           0       -3.438357   -4.884929   -1.398845
     17          6           0       -3.860473   -4.643094    1.657562
     18          8           0       -3.264546   -1.635494   -0.062211
     19          6           0       -2.432068    1.978047    0.164154
     20          6           0       -3.427684    2.710952    0.768629
     21          6           0       -2.969680    4.060228    0.804563
     22          6           0       -1.723687    4.093113    0.224241
     23         14           0       -0.467650    5.458757   -0.112042
     24          6           0       -1.215867    7.070221    0.530868
     25          6           0        1.141562    5.056048    0.791975
     26          6           0       -0.151506    5.562639   -1.973057
     27          8           0       -1.398294    2.808910   -0.167776
     28          6           0        3.620662   -0.747187    0.255884
     29          6           0        3.582098   -0.870457    1.610617
     30          6           0        2.566449   -0.390369    2.477643
     31          7           0        1.765210    0.001738    3.228192
     32          6           0        4.802729   -1.599068    2.110969
     33          6           0        5.571329   -1.876947    0.839032
     34          6           0        6.810115   -2.552775    0.865841
     35          7           0        7.828612   -3.119361    0.953424
     36          6           0        4.866723   -1.358870   -0.232199
     37          1           0        6.494171   -2.950316   -1.804717
     38          1           0        6.418895   -1.811158   -3.161097
     39          1           0        7.283506   -1.363929   -1.672769
     40          1           0        4.682249   -0.560502   -3.455101
     41          1           0        2.583583    0.493839   -2.814679
     42          1           0        2.329173    0.862849   -0.300216
     43          1           0        1.425917   -2.015824   -0.965301
     44          1           0       -5.235857    0.936511   -0.555510
     45          1           0       -6.503735   -1.474191   -0.526039
     46          1           0       -6.402468   -5.773487   -0.172231
     47          1           0       -6.964398   -4.250463    0.527925
     48          1           0       -6.722126   -4.388335   -1.223628
     49          1           0       -3.413561   -5.978755   -1.326348
     50          1           0       -2.408644   -4.519537   -1.319450
     51          1           0       -3.811365   -4.620201   -2.394311
     52          1           0       -2.841419   -4.269499    1.805860
     53          1           0       -4.483999   -4.238919    2.462510
     54          1           0       -3.837468   -5.734302    1.762890
     55          1           0       -4.349198    2.322306    1.174444
     56          1           0       -3.497021    4.908699    1.218616
     57          1           0       -0.524948    7.904223    0.361340
     58          1           0       -2.155567    7.310882    0.021357
     59          1           0       -1.415820    7.020837    1.606994
     60          1           0        1.900551    5.824232    0.601639
     61          1           0        1.546644    4.093794    0.460369
     62          1           0        0.985588    4.994171    1.874338
     63          1           0        0.217768    4.607208   -2.361775
     64          1           0       -1.067763    5.813255   -2.518801
     65          1           0        0.598070    6.330113   -2.200023
     66          1           0        5.379495   -0.984749    2.815585
     67          1           0        4.529332   -2.519051    2.645553
 ---------------------------------------------------------------------

 SCF Done:  E(RB3LYP) =  -2017.45180381     A.U. after   17 cycles

 Excitation energies and oscillator strengths:

 Excited State   1:      Triplet-A      1.3975 eV  887.20 nm  f=0.0000  <S**2>=2.000
     134 ->137        -0.12201
     135 ->137         0.69504
     135 <-137         0.16633
 This state for optimization and/or second-order correction.
 Total Energy, E(TD-HF/TD-DFT) =  -2017.40044744
 Copying the excited state density for this state as the 1-particle RhoCI density.

 Excited State   2:      Triplet-A      1.8900 eV  656.01 nm  f=0.0000  <S**2>=2.000
     132 ->136        -0.24819
     134 ->136         0.52053
     135 ->136         0.39418

 Excited State   3:      Singlet-A      2.4082 eV  514.84 nm  f=0.0118  <S**2>=0.000
     135 ->136         0.70366

 Excited State   4:      Triplet-A      2.4684 eV  502.28 nm  f=0.0000  <S**2>=2.000
     134 ->136        -0.39700
     135 ->136         0.57229

 Excited State   5:      Singlet-A      2.9759 eV  416.63 nm  f=0.7201  <S**2>=0.000
     134 ->136        -0.33049
     134 ->137         0.20161
     135 ->137         0.58496

 Excited State   6:      Singlet-A      3.0312 eV  409.03 nm  f=0.0213  <S**2>=0.000
     134 ->136         0.56971
     134 ->137         0.33976
     135 ->137         0.21433

 The electronic state is 1-A.
 Alpha  occ. eigenvalues --  -66.13570 -66.13499 -19.22121 -19.22097 -14.41343
 Alpha  occ. eigenvalues --  -14.35204 -14.34175 -10.27804 -10.25852 -10.25832
 Alpha  occ. eigenvalues --  -10.25329 -10.25201 -10.24866 -10.24741 -10.24332
 Alpha  occ. eigenvalues --  -10.24083 -10.24009 -10.23835 -10.23818 -10.23529
 Alpha  occ. eigenvalues --  -10.22938 -10.22933 -10.21999 -10.21176 -10.20942
 Alpha  occ. eigenvalues --  -10.20860 -10.19979 -10.19933 -10.19739 -10.19711
 Alpha  occ. eigenvalues --  -10.17274 -10.17247 -10.16970 -10.16839 -10.16813
 Alpha  occ. eigenvalues --  -10.16715  -5.27942  -5.27876  -3.63896  -3.63832
 Alpha  occ. eigenvalues --   -3.63796  -3.63771  -3.63729  -3.63703  -1.11206
 Alpha  occ. eigenvalues --   -1.11097  -1.00767  -0.92393  -0.91157  -0.89648
 Alpha  occ. eigenvalues --   -0.85170  -0.84202  -0.80811  -0.80368  -0.79030
 Alpha  occ. eigenvalues --   -0.78054  -0.76891  -0.75159  -0.74706  -0.72443
 Alpha  occ. eigenvalues --   -0.71551  -0.70852  -0.68646  -0.68580  -0.68315
 Alpha  occ. eigenvalues --   -0.68203  -0.68126  -0.66363  -0.65471  -0.64361
 Alpha  occ. eigenvalues --   -0.60985  -0.60644  -0.57291  -0.56793  -0.56414
 Alpha  occ. eigenvalues --   -0.54520  -0.54040  -0.53926  -0.52187  -0.51414
 Alpha  occ. eigenvalues --   -0.49226  -0.48982  -0.48206  -0.47578  -0.47179
 Alpha  occ. eigenvalues --   -0.46977  -0.46001  -0.45801  -0.45268  -0.43937
 Alpha  occ. eigenvalues --   -0.43444  -0.42938  -0.42713  -0.42613  -0.42369
 Alpha  occ. eigenvalues --   -0.42193  -0.41488  -0.41440  -0.41397  -0.41037
 Alpha  occ. eigenvalues --   -0.40892  -0.40837  -0.39668  -0.39603  -0.39593
 Alpha  occ. eigenvalues --   -0.39539  -0.39421  -0.39299  -0.38694  -0.38598
 Alpha  occ. eigenvalues --   -0.38533  -0.38314  -0.38152  -0.37580  -0.37242
 Alpha  occ. eigenvalues --   -0.36697  -0.36236  -0.35686  -0.34317  -0.33081
 Alpha  occ. eigenvalues --   -0.32848  -0.32537  -0.31956  -0.31164  -0.31074
 Alpha  occ. eigenvalues --   -0.31071  -0.30998  -0.29406  -0.28819  -0.28227
 Alpha  occ. eigenvalues --   -0.27411  -0.25694  -0.23374  -0.22154  -0.19976
 Alpha virt. eigenvalues --   -0.09281  -0.08563  -0.02030  -0.01644  -0.01390
 Alpha virt. eigenvalues --   -0.01052  -0.00955  -0.00331   0.00428   0.00524
 Alpha virt. eigenvalues --    0.00764   0.00935   0.00987   0.01099   0.01855

 Mulliken charges:
               1
     1  C   -0.171657
     2  N   -0.038018
     3  C    0.117487
     4  C   -0.356141
     5  C    0.137495
     6  C   -0.578391
     7  C    0.051866
     8  C    0.083173
     9  C    0.019073
    10  C    0.090659
    11  C   -0.356806
    12  C   -0.054113
    13  C   -0.481077
    14  Si   1.293262
    15  C   -0.700450
    16  C   -0.683059
    17  C   -0.671229
    18  O   -0.235746
    19  C    0.129423
    20  C   -0.373558
    21  C   -0.027984
    22  C   -0.493542
    23  Si   1.296535
    24  C   -0.698667
    25  C   -0.681713
    26  C   -0.672096
    27  O   -0.218649
    28  C    0.281056
    29  C    0.503497
    30  C    0.012053
    31  N   -0.495663
    32  C   -1.034871
    33  C    0.228094
    34  C    0.233728
    35  N   -0.619491
    36  C    0.166928
    37  H    0.180889
    38  H    0.142676
    39  H    0.181147
    40  H    0.126839
    41  H    0.136585
    42  H    0.169284
    43  H    0.147426
    44  H    0.140695
    45  H    0.133227
    46  H    0.164244
    47  H    0.167539
    48  H    0.166992
    49  H    0.159855
    50  H    0.170964
    51  H    0.163055
    52  H    0.174863
    53  H    0.163590
    54  H    0.159587
    55  H    0.140949
    56  H    0.133573
    57  H    0.163583
    58  H    0.167175
    59  H    0.168683
    60  H    0.159233
    61  H    0.165014
    62  H    0.168256
    63  H    0.168776
    64  H    0.162973
    65  H    0.159578
    66  H    0.196058
    67  H    0.195289
 Sum of Mulliken charges =  -0.00000

 Dipole moment (field-independent basis, Debye):
    X=             -2.6916    Y=              1.7334    Z=             -4.4252  Tot=              5.4619
 Quadrupole moment (field-independent basis, Debye-Ang):
   XX=           -238.0392   YY=           -215.4040   ZZ=           -232.7101
   XY=             18.9032   XZ=            -20.6747   YZ=              4.7869

 Normal termination of Gaussian 16 at Mon Aug 25 08:05:55 2025.
