 Gaussian 16, Revision C.02,
 Gaussian 16:  ES64L-G16RevC.02  7-Dec-2021

 ----------------------------------------------------------
 # td=(50-50,nstates=3) b3lyp/6-31+g(d,p) geom=connectivity
 ----------------------------------------------------------

 -------------------
 Title Card Required
 -------------------
 Symbolic Z-matrix:
 Charge =  0 Multiplicity = 1

                         Standard orientation:
 ---------------------------------------------------------------------
 Center     Atomic      Atomic             Coordinates (Angstroms)
 Number     Number       Type             X           Y           Z
 ---------------------------------------------------------------------
      1          6           0       -2.303260    4.205866    0.392971
      2          6           0       -2.470808    2.712562    0.243709
      3          6           0       -3.705721    2.093062    0.459359
      4          6           0       -3.839293    0.710943    0.322872
      5          6           0       -2.738410   -0.064997   -0.040066
      6         16           0       -3.040488   -1.839126   -0.221634
      7          8           0       -4.471350   -2.084465    0.019149
      8          8           0       -2.391566   -2.308851   -1.462955
      9          6           0       -1.478278    0.527207   -0.266843
     10          6           0       -0.248801   -0.296288   -0.619283
     11          7           0        0.875568    0.480628   -1.152697
     12          6           0        2.048746    0.101862   -0.522801
     13          6           0        3.358027    0.488950   -0.840073
     14          6           0        4.373219    0.019419   -0.010712
     15         17           0        6.025521    0.483677   -0.371303
     16          6           0        4.139727   -0.806360    1.107061
     17          6           0        2.836595   -1.189721    1.399429
     18          6           0        1.796374   -0.744437    0.575932
     19          6           0        0.364125   -1.016601    0.618092
     20          8           0       -0.278621   -1.674822    1.424856
     21          6           0       -1.374605    1.911999   -0.115651
     22          1           0       -3.244004    4.686816    0.673239
     23          1           0       -1.559946    4.444145    1.162268
     24          1           0       -1.957752    4.659724   -0.542864
     25          1           0       -4.570594    2.688840    0.736916
     26          1           0       -4.794275    0.223610    0.487284
     27          1           0       -2.326889   -2.353541    0.820573
     28          1           0       -0.536046   -1.088687   -1.322891
     29          1           0        0.894065    0.667909   -2.146769
     30          1           0        3.580751    1.132585   -1.683669
     31          1           0        4.973799   -1.135968    1.714881
     32          1           0        2.619694   -1.835867    2.244333
     33          1           0       -0.407350    2.373856   -0.288508
 ---------------------------------------------------------------------

 SCF Done:  E(RB3LYP) =  -1717.62029873     A.U. after   17 cycles

 Excitation energies and oscillator strengths:

 Excited State   1:      Triplet-A      2.8442 eV  435.92 nm  f=0.0000  <S**2>=2.000
      80 -> 84        -0.11816
      83 -> 84         0.68383
 This state for optimization and/or second-order correction.
 Total Energy, E(TD-HF/TD-DFT) =  -1717.51577627
 Copying the excited state density for this state as the 1-particle RhoCI density.

 Excited State   2:      Triplet-A      3.3360 eV  371.65 nm  f=0.0000  <S**2>=2.000
      78 -> 84        -0.10580
      79 -> 84        -0.13847
      80 -> 84         0.47055
      82 -> 84         0.33594
      83 -> 84         0.14529
      83 -> 87         0.23578

 Excited State   3:      Triplet-A      3.3869 eV  366.07 nm  f=0.0000  <S**2>=2.000
      79 -> 84        -0.24918
      80 -> 84        -0.33224
      81 -> 84        -0.10315
      82 -> 84         0.49598
      83 -> 87        -0.12944

 Excited State   4:      Singlet-A      3.6172 eV  342.76 nm  f=0.0653  <S**2>=0.000
      82 -> 84         0.10165
      83 -> 84         0.68600

 Excited State   5:      Singlet-A      3.7332 eV  332.12 nm  f=0.0026  <S**2>=0.000
      78 -> 84        -0.10840
      79 -> 84        -0.24366
      82 -> 84         0.62503

 Excited State   6:      Singlet-A      4.4904 eV  276.11 nm  f=0.0070  <S**2>=0.000
      81 -> 84         0.68936
      82 -> 84         0.10872

 The electronic state is 1-A.
 Alpha  occ. eigenvalues -- -101.57547 -89.10516 -19.16978 -19.15582 -19.15575
 Alpha  occ. eigenvalues --  -14.39305 -10.30511 -10.29038 -10.27564 -10.26358
 Alpha  occ. eigenvalues --  -10.24401 -10.24151 -10.23578 -10.23245 -10.23175
 Alpha  occ. eigenvalues --  -10.22583 -10.22434 -10.22217 -10.21693 -10.21670
 Alpha  occ. eigenvalues --  -10.20727  -9.49056  -8.13425  -7.25465  -7.24501
 Alpha  occ. eigenvalues --   -7.24448  -6.09870  -6.09796  -6.09720  -1.10812
 Alpha  occ. eigenvalues --   -1.06690  -1.00780  -0.99531  -0.91551  -0.89418
 Alpha  occ. eigenvalues --   -0.85866  -0.81898  -0.80235  -0.78481  -0.77322
 Alpha  occ. eigenvalues --   -0.73648  -0.73225  -0.67936  -0.66697  -0.64240
 Alpha  occ. eigenvalues --   -0.61824  -0.60701  -0.58859  -0.55922  -0.55480
 Alpha  occ. eigenvalues --   -0.52506  -0.51317  -0.50513  -0.50201  -0.48709
 Alpha  occ. eigenvalues --   -0.47595  -0.47322  -0.46606  -0.46070  -0.45484
 Alpha  occ. eigenvalues --   -0.45234  -0.44550  -0.44161  -0.42804  -0.41613
 Alpha  occ. eigenvalues --   -0.40873  -0.40397  -0.39500  -0.38706  -0.38490
 Alpha  occ. eigenvalues --   -0.37190  -0.36939  -0.34025  -0.33652  -0.33042
 Alpha  occ. eigenvalues --   -0.32817  -0.31432  -0.30498  -0.29210  -0.28059
 Alpha  occ. eigenvalues --   -0.27681  -0.26768  -0.24599
 Alpha virt. eigenvalues --   -0.09041  -0.05581  -0.04028  -0.03471  -0.01726
 Alpha virt. eigenvalues --   -0.00617   0.00019   0.00400   0.00498   0.00840
 Alpha virt. eigenvalues --    0.01650   0.02167   0.02569   0.03094   0.03507

 Mulliken charges:
               1
     1  C   -0.476522
     2  C   -0.197019
     3  C   -0.812918
     4  C    0.362617
     5  C   -0.914418
     6  S    1.705737
     7  O   -0.564890
     8  O   -0.506346
     9  C    0.670136
    10  C   -0.324190
    11  N   -0.246109
    12  C   -2.221716
    13  C   -0.191557
    14  C   -0.092558
    15  Cl   0.279538
    16  C   -0.147242
    17  C    0.130649
    18  C    0.768704
    19  C    0.744768
    20  O   -0.415607
    21  C    0.412649
    22  H    0.153984
    23  H    0.171580
    24  H    0.169807
    25  H    0.131348
    26  H    0.180229
    27  H    0.078048
    28  H    0.239094
    29  H    0.314417
    30  H    0.142580
    31  H    0.150047
    32  H    0.161465
    33  H    0.143697
 Sum of Mulliken charges =  -0.00000

 Dipole moment (field-independent basis, Debye):
    X=              3.1937    Y=              5.3058    Z=              0.0709  Tot=              6.1933
 Quadrupole moment (field-independent basis, Debye-Ang):
   XX=           -150.6328   YY=           -135.8835   ZZ=           -135.5719
   XY=            -20.0180   XZ=             -5.1409   YZ=             -5.9662

 Normal termination of Gaussian 16 at Tue Sep 30 11:53:38 2025.
