 Gaussian 16, Revision C.02,
 Gaussian 16:  ES64L-G16RevC.02  7-Dec-2021

 -------------------------------------
 # b3lyp/6-31+g(d,p) geom=connectivity
 -------------------------------------

 -------------------
 Title Card Required
 -------------------
 Symbolic Z-matrix:
 Charge =  0 Multiplicity = 1

                         Standard orientation:
 ---------------------------------------------------------------------
 Center     Atomic      Atomic             Coordinates (Angstroms)
 Number     Number       Type             X           Y           Z
 ---------------------------------------------------------------------
      1          6           0       -5.455462   -0.337358   -2.132405
      2          6           0       -4.832066   -0.248261   -0.727582
      3          6           0       -5.297835    1.066230   -0.055557
      4          6           0       -5.316014   -1.455213    0.112411
      5          6           0       -3.310930   -0.264694   -0.798884
      6          6           0       -2.540195   -0.334813   -1.888085
      7          6           0       -1.041380   -0.346210   -1.810567
      8          6           0       -0.548878   -0.231693   -0.380158
      9          7           0        0.883823   -0.256509   -0.250357
     10          6           0        1.459086   -1.598253   -0.321856
     11          6           0        2.666434   -1.715844   -1.249021
     12          7           0        3.898563   -1.316251   -0.554658
     13          6           0        4.829199   -2.258930   -0.309750
     14          7           0        5.587947   -3.128877   -0.147843
     15          6           0        4.078301   -0.032752    0.003140
     16          8           0        5.104998    0.199123    0.621769
     17          6           0        3.052568    1.023277   -0.271523
     18          6           0        3.648747    2.304843   -0.353446
     19          6           0        2.923241    3.462642   -0.569840
     20          6           0        1.531727    3.358135   -0.677754
     21          6           0        0.908739    2.125680   -0.576331
     22          6           0        1.628342    0.915953   -0.381770
     23          6           0       -1.389237   -0.168573    0.673933
     24          6           0       -1.141576   -0.050168    2.183736
     25          6           0       -1.828656    1.245983    2.687292
     26          6           0       -1.791000   -1.274932    2.878161
     27          6           0        0.338413    0.009204    2.603333
     28          8           0       -2.760608   -0.193982    0.471767
     29          1           0       -5.172849   -1.263078   -2.644454
     30          1           0       -6.546766   -0.325618   -2.046234
     31          1           0       -5.163378    0.510008   -2.761443
     32          1           0       -4.893935    1.162028    0.955418
     33          1           0       -6.391182    1.084523    0.011552
     34          1           0       -4.978137    1.938284   -0.636328
     35          1           0       -6.409509   -1.449269    0.178916
     36          1           0       -5.008325   -2.401132   -0.346457
     37          1           0       -4.913513   -1.421168    1.127927
     38          1           0       -3.003921   -0.385922   -2.865224
     39          1           0       -0.641294   -1.267615   -2.268851
     40          1           0       -0.612308    0.473365   -2.409322
     41          1           0        0.670033   -2.263902   -0.682670
     42          1           0        1.747650   -1.962695    0.675430
     43          1           0        2.537041   -1.105826   -2.148762
     44          1           0        2.796326   -2.754100   -1.557146
     45          1           0        4.725057    2.350183   -0.234157
     46          1           0        3.423601    4.422214   -0.643331
     47          1           0        0.922593    4.243809   -0.836092
     48          1           0       -0.171245    2.079317   -0.631217
     49          1           0       -1.691711    1.333984    3.770334
     50          1           0       -1.385876    2.131858    2.219520
     51          1           0       -2.900125    1.243270    2.477280
     52          1           0       -1.656915   -1.194632    3.962192
     53          1           0       -1.320915   -2.208382    2.549105
     54          1           0       -2.861043   -1.337884    2.669394
     55          1           0        0.859023    0.871155    2.182189
     56          1           0        0.379213    0.099431    3.694164
     57          1           0        0.885552   -0.897394    2.335129
 ---------------------------------------------------------------------

 SCF Done:  E(RB3LYP) =  -1208.63797077     A.U. after   17 cycles

 The electronic state is 1-A.
 Alpha  occ. eigenvalues --  -19.20999 -19.14724 -14.42518 -14.38704 -14.34207
 Alpha  occ. eigenvalues --  -10.32351 -10.27275 -10.26778 -10.26743 -10.26479
 Alpha  occ. eigenvalues --  -10.26175 -10.25685 -10.24082 -10.22781 -10.22529
 Alpha  occ. eigenvalues --  -10.22360 -10.21741 -10.21252 -10.20867 -10.20382
 Alpha  occ. eigenvalues --  -10.19921 -10.19814 -10.19228 -10.18954 -10.18945
 Alpha  occ. eigenvalues --  -10.18896 -10.18797 -10.18610  -1.09890  -1.07383
 Alpha  occ. eigenvalues --   -0.99631  -0.97871  -0.90114  -0.87020  -0.85603
 Alpha  occ. eigenvalues --   -0.83238  -0.82036  -0.79811  -0.78220  -0.76933
 Alpha  occ. eigenvalues --   -0.74557  -0.70597  -0.70131  -0.70019  -0.70004
 Alpha  occ. eigenvalues --   -0.69819  -0.68091  -0.67187  -0.66286  -0.61613
 Alpha  occ. eigenvalues --   -0.61295  -0.59799  -0.56376  -0.55982  -0.55302
 Alpha  occ. eigenvalues --   -0.54253  -0.51878  -0.50729  -0.49633  -0.48464
 Alpha  occ. eigenvalues --   -0.48225  -0.47748  -0.47633  -0.46513  -0.45474
 Alpha  occ. eigenvalues --   -0.45298  -0.45163  -0.44614  -0.44136  -0.43887
 Alpha  occ. eigenvalues --   -0.43352  -0.43007  -0.42837  -0.42556  -0.42125
 Alpha  occ. eigenvalues --   -0.40755  -0.40282  -0.39733  -0.39365  -0.38984
 Alpha  occ. eigenvalues --   -0.38680  -0.38390  -0.38046  -0.37932  -0.37516
 Alpha  occ. eigenvalues --   -0.36955  -0.36788  -0.36302  -0.36224  -0.35121
 Alpha  occ. eigenvalues --   -0.34719  -0.34321  -0.34035  -0.33933  -0.33555
 Alpha  occ. eigenvalues --   -0.31094  -0.29028  -0.28126  -0.27326  -0.26716
 Alpha  occ. eigenvalues --   -0.23019  -0.21981
 Alpha virt. eigenvalues --   -0.06092  -0.02123  -0.01915  -0.01779  -0.00637
 Alpha virt. eigenvalues --   -0.00075   0.00158   0.00743   0.01106   0.01187
 Alpha virt. eigenvalues --    0.01596   0.01680   0.02010   0.02653   0.02789

 Mulliken charges:
               1
     1  C   -0.566592
     2  C    0.215314
     3  C   -0.474910
     4  C   -0.466151
     5  C    0.400764
     6  C   -0.672392
     7  C    0.283486
     8  C   -1.036448
     9  N    0.365874
    10  C    0.537939
    11  C   -0.532899
    12  N   -0.274128
    13  C    0.487343
    14  N   -0.402396
    15  C   -0.278895
    16  O   -0.419112
    17  C    0.048420
    18  C    0.021787
    19  C   -0.227574
    20  C   -0.483038
    21  C    0.132244
    22  C    0.520592
    23  C    0.323456
    24  C   -0.133278
    25  C   -0.508779
    26  C   -0.443524
    27  C   -0.454869
    28  O   -0.337606
    29  H    0.153928
    30  H    0.151240
    31  H    0.154014
    32  H    0.155145
    33  H    0.147652
    34  H    0.151961
    35  H    0.147470
    36  H    0.151330
    37  H    0.156099
    38  H    0.126321
    39  H    0.135084
    40  H    0.159478
    41  H    0.156578
    42  H    0.160769
    43  H    0.181860
    44  H    0.173291
    45  H    0.161097
    46  H    0.131512
    47  H    0.129773
    48  H    0.130750
    49  H    0.149186
    50  H    0.154990
    51  H    0.156593
    52  H    0.149780
    53  H    0.148137
    54  H    0.158396
    55  H    0.165476
    56  H    0.144963
    57  H    0.132498
 Sum of Mulliken charges =  -0.00000

 Dipole moment (field-independent basis, Debye):
    X=             -8.5499    Y=              1.6413    Z=             -2.3768  Tot=              9.0246
 Quadrupole moment (field-independent basis, Debye-Ang):
   XX=           -215.4511   YY=           -173.1665   ZZ=           -165.8928
   XY=             17.7184   XZ=             -6.8532   YZ=              1.9043

 1\1\GINC-N1\SP\RB3LYP\6-31+G(d,p)\C23H29N3O2\HPCMGAC13\25-Aug-2025\0\\
 # b3lyp/6-31+g(d,p) geom=connectivity\\Title Card Required\\0,1\C,0,5.
 455462,0.337358,-2.132405\C,0,4.832066,0.248261,-0.727582\C,0,5.297835
 ,-1.06623,-0.055557\C,0,5.316014,1.455213,0.112411\C,0,3.31093,0.26469
 4,-0.798884\C,0,2.540195,0.334813,-1.888085\C,0,1.04138,0.34621,-1.810
 567\C,0,0.548878,0.231693,-0.380158\N,0,-0.883823,0.256509,-0.250357\C
 ,0,-1.459086,1.598253,-0.321856\C,0,-2.666434,1.715844,-1.249021\N,0,-
 3.898563,1.316251,-0.554658\C,0,-4.829199,2.25893,-0.30975\N,0,-5.5879

 Normal termination of Gaussian 16 at Mon Aug 25 07:58:59 2025.
