 Gaussian 16, Revision C.02,
 Gaussian 16:  ES64L-G16RevC.02  7-Dec-2021

 ----------------------------------------------------------
 # td=(50-50,nstates=3) b3lyp/6-31+g(d,p) geom=connectivity
 ----------------------------------------------------------

 -------------------
 Title Card Required
 -------------------
 Symbolic Z-matrix:
 Charge =  0 Multiplicity = 1

                         Standard orientation:
 ---------------------------------------------------------------------
 Center     Atomic      Atomic             Coordinates (Angstroms)
 Number     Number       Type             X           Y           Z
 ---------------------------------------------------------------------
      1          6           0        0.105406   -2.641634   -1.084646
      2          6           0        0.802391   -1.590183   -0.590032
      3          6           0        2.245903   -1.730138   -0.458472
      4          6           0        3.067757   -0.686638   -0.222763
      5          6           0        4.595413   -0.815038   -0.121373
      6          6           0        5.021785   -2.294078   -0.016855
      7          6           0        5.267286   -0.208889   -1.380767
      8          6           0        5.103668   -0.083464    1.145922
      9          6           0        2.427367    0.657932   -0.163764
     10          8           0        3.098933    1.668633   -0.361345
     11          6           0        0.938741    0.783172    0.132691
     12          6           0        0.494807    2.158017    0.692437
     13          6           0        1.448699    2.558797    1.856913
     14          6           0        0.556193    3.231223   -0.429004
     15          6           0       -0.924210    2.191175    1.295199
     16          6           0        0.176050   -0.313341   -0.170155
     17          7           0       -1.259883   -0.337569   -0.119765
     18         15           0       -2.378151   -0.026498   -1.408892
     19         16           0       -2.820714    1.704768   -2.109153
     20          7           0       -3.460805   -0.890256   -0.329124
     21          6           0       -4.795231   -0.944905   -0.315141
     22          7           0       -5.959502   -1.018261   -0.315129
     23         15           0       -2.303675   -1.227260    0.951009
     24         16           0       -2.651923   -0.784223    2.786273
     25          1           0        0.620615   -3.556611   -1.357995
     26          1           0       -0.962321   -2.628037   -1.257559
     27          1           0        2.639143   -2.729984   -0.606033
     28          1           0        6.107152   -2.345880    0.114270
     29          1           0        4.559397   -2.794956    0.841239
     30          1           0        4.780078   -2.861265   -0.922442
     31          1           0        6.354108   -0.332771   -1.309644
     32          1           0        5.043281    0.853664   -1.479276
     33          1           0        4.929177   -0.723240   -2.287499
     34          1           0        4.647375   -0.500955    2.050908
     35          1           0        6.188500   -0.209828    1.230544
     36          1           0        4.889322    0.985635    1.107322
     37          1           0        1.087538    3.494320    2.295337
     38          1           0        1.439223    1.800470    2.648698
     39          1           0        2.474587    2.715601    1.528379
     40          1           0        0.250752    4.196081   -0.008267
     41          1           0       -0.139501    2.987290   -1.237553
     42          1           0        1.560243    3.332852   -0.839355
     43          1           0       -1.063947    1.436906    2.071889
     44          1           0       -1.063813    3.171262    1.763021
     45          1           0       -1.711094    2.082552    0.550937
     46          1           0       -2.072367   -0.969709   -2.407842
     47          1           0       -1.990150   -2.584267    0.763003
 ---------------------------------------------------------------------

 SCF Done:  E(RB3LYP) =  -2342.14771532     A.U. after   19 cycles

 Excitation energies and oscillator strengths:

 Excited State   1:      Triplet-A      1.9716 eV  628.85 nm  f=0.0000  <S**2>=2.000
     103 ->106        -0.26675
     104 ->106         0.20516
     105 ->106         0.60121
     105 <-106         0.12746
 This state for optimization and/or second-order correction.
 Total Energy, E(TD-HF/TD-DFT) =  -2342.07526062
 Copying the excited state density for this state as the 1-particle RhoCI density.

 Excited State   2:      Triplet-A      2.4330 eV  509.59 nm  f=0.0000  <S**2>=2.000
     104 ->106         0.64622
     105 ->106        -0.21561

 Excited State   3:      Singlet-A      2.8171 eV  440.12 nm  f=0.0005  <S**2>=0.000
     104 ->106         0.65462
     105 ->106        -0.23280

 Excited State   4:      Triplet-A      2.8852 eV  429.73 nm  f=0.0000  <S**2>=2.000
      99 ->106         0.12089
     100 ->106         0.44893
     102 ->106        -0.15258
     103 ->106         0.43311
     105 ->106         0.11170
     105 ->108         0.13394

 Excited State   5:      Singlet-A      3.5777 eV  346.55 nm  f=0.0354  <S**2>=0.000
     100 ->106         0.12727
     103 ->106         0.59772
     104 ->106         0.12164
     105 ->106         0.32282

 Excited State   6:      Singlet-A      3.7673 eV  329.10 nm  f=0.0236  <S**2>=0.000
     100 ->106        -0.23074
     102 ->106         0.54859
     104 ->106         0.10033
     105 ->106         0.33367

 The electronic state is 1-A.
 Alpha  occ. eigenvalues --  -88.88637 -88.88555 -77.25507 -77.25384 -19.16268
 Alpha  occ. eigenvalues --  -14.43666 -14.41168 -14.35966 -10.30250 -10.28624
 Alpha  occ. eigenvalues --  -10.28583 -10.25559 -10.24810 -10.24261 -10.23306
 Alpha  occ. eigenvalues --  -10.23119 -10.22753 -10.22639 -10.19416 -10.18554
 Alpha  occ. eigenvalues --  -10.18373 -10.18042 -10.17618 -10.17539  -7.94926
 Alpha  occ. eigenvalues --   -7.94851  -6.70870  -6.70759  -5.91452  -5.91378
 Alpha  occ. eigenvalues --   -5.90807  -5.90736  -5.90592  -5.90512  -4.87276
 Alpha  occ. eigenvalues --   -4.87165  -4.87135  -4.87026  -4.86913  -4.86795
 Alpha  occ. eigenvalues --   -1.06352  -1.03548  -0.96361  -0.91407  -0.88297
 Alpha  occ. eigenvalues --   -0.84584  -0.83440  -0.80718  -0.79275  -0.78514
 Alpha  occ. eigenvalues --   -0.75841  -0.71181  -0.70319  -0.69561  -0.69039
 Alpha  occ. eigenvalues --   -0.68570  -0.67290  -0.65329  -0.63850  -0.60905
 Alpha  occ. eigenvalues --   -0.57538  -0.57210  -0.54973  -0.54194  -0.53268
 Alpha  occ. eigenvalues --   -0.52408  -0.49639  -0.48534  -0.48261  -0.47178
 Alpha  occ. eigenvalues --   -0.46446  -0.46145  -0.45373  -0.45153  -0.44332
 Alpha  occ. eigenvalues --   -0.43845  -0.42726  -0.42287  -0.41709  -0.41563
 Alpha  occ. eigenvalues --   -0.41061  -0.39951  -0.39597  -0.38768  -0.38531
 Alpha  occ. eigenvalues --   -0.38441  -0.38109  -0.37450  -0.36316  -0.36128
 Alpha  occ. eigenvalues --   -0.35619  -0.35524  -0.34920  -0.34378  -0.34354
 Alpha  occ. eigenvalues --   -0.33864  -0.31748  -0.31195  -0.30077  -0.29353
 Alpha  occ. eigenvalues --   -0.28336  -0.28302  -0.27665  -0.26810  -0.26728
 Alpha virt. eigenvalues --   -0.12087  -0.08364  -0.05653  -0.04529  -0.03216
 Alpha virt. eigenvalues --   -0.02375  -0.01823  -0.00840   0.00106   0.00133
 Alpha virt. eigenvalues --    0.00279   0.01047   0.01218   0.01673   0.01952

 Mulliken charges:
               1
     1  C   -0.331711
     2  C    0.333542
     3  C   -0.307798
     4  C    0.533487
     5  C    0.306950
     6  C   -0.429600
     7  C   -0.534797
     8  C   -0.554879
     9  C   -0.374836
    10  O   -0.409576
    11  C   -0.060468
    12  C    0.197605
    13  C   -0.518662
    14  C   -0.545820
    15  C   -0.379944
    16  C   -0.255724
    17  N   -0.674422
    18  P    0.905463
    19  S   -0.104290
    20  N   -0.748617
    21  C    0.296012
    22  N   -0.309300
    23  P    0.798229
    24  S   -0.074321
    25  H    0.150968
    26  H    0.143356
    27  H    0.133885
    28  H    0.154636
    29  H    0.154299
    30  H    0.143324
    31  H    0.144678
    32  H    0.186093
    33  H    0.141912
    34  H    0.145373
    35  H    0.145770
    36  H    0.176176
    37  H    0.146954
    38  H    0.147339
    39  H    0.175474
    40  H    0.145712
    41  H    0.155988
    42  H    0.181422
    43  H    0.149253
    44  H    0.141438
    45  H    0.159280
    46  H    0.006749
    47  H    0.013397
 Sum of Mulliken charges =  -0.00000

 Dipole moment (field-independent basis, Debye):
    X=              5.6854    Y=             -4.1005    Z=             -1.0575  Tot=              7.0892
 Quadrupole moment (field-independent basis, Debye-Ang):
   XX=           -215.0273   YY=           -170.2132   ZZ=           -181.1572
   XY=             -7.5059   XZ=              3.0445   YZ=              8.0447

 Normal termination of Gaussian 16 at Sun Aug 24 22:33:02 2025.
