 Gaussian 16, Revision C.02,
 Gaussian 16:  ES64L-G16RevC.02  7-Dec-2021

 ----------------------------------------------------------
 # td=(50-50,nstates=3) b3lyp/6-31+g(d,p) geom=connectivity
 ----------------------------------------------------------

 -------------------
 Title Card Required
 -------------------
 Symbolic Z-matrix:
 Charge =  0 Multiplicity = 1

                         Standard orientation:
 ---------------------------------------------------------------------
 Center     Atomic      Atomic             Coordinates (Angstroms)
 Number     Number       Type             X           Y           Z
 ---------------------------------------------------------------------
      1          6           0        4.965736   -1.426428    0.865675
      2          6           0        3.860643   -1.124591   -0.153296
      3          6           0        2.907946   -0.017447    0.319079
      4          6           0        1.807807    0.341047   -0.692132
      5          7           0        0.793957   -0.704813   -0.887428
      6          6           0       -0.437152   -0.274981   -0.441893
      7          6           0       -1.631731   -1.006325   -0.354014
      8          6           0       -2.760323   -0.321981    0.088595
      9         17           0       -4.274779   -1.204373    0.210214
     10          6           0       -2.751995    1.041403    0.440280
     11          6           0       -1.556712    1.748050    0.354747
     12          6           0       -0.403176    1.088922   -0.079129
     13          6           0        0.976299    1.559903   -0.221189
     14          8           0        1.439590    2.671397   -0.013523
     15          1           0        5.635025   -2.213939    0.504025
     16          1           0        5.572879   -0.535684    1.062809
     17          1           0        4.544110   -1.758832    1.821309
     18          1           0        3.299885   -2.048800   -0.354004
     19          1           0        4.312356   -0.826652   -1.109164
     20          1           0        3.475353    0.901693    0.510301
     21          1           0        2.437923   -0.304577    1.269702
     22          1           0        2.270043    0.598668   -1.655009
     23          1           0        1.046655   -1.680886   -0.839580
     24          1           0       -1.686935   -2.054816   -0.624732
     25          1           0       -3.666458    1.517178    0.773676
     26          1           0       -1.508068    2.798067    0.626867
 ---------------------------------------------------------------------

 SCF Done:  E(RB3LYP) =  -1016.62202286     A.U. after   15 cycles

 Excitation energies and oscillator strengths:

 Excited State   1:      Triplet-A      2.7974 eV  443.22 nm  f=0.0000  <S**2>=2.000
      53 -> 56        -0.11474
      55 -> 56         0.69060
 This state for optimization and/or second-order correction.
 Total Energy, E(TD-HF/TD-DFT) =  -1016.51922140
 Copying the excited state density for this state as the 1-particle RhoCI density.

 Excited State   2:      Triplet-A      3.2901 eV  376.84 nm  f=0.0000  <S**2>=2.000
      53 -> 56        -0.10558
      54 -> 56         0.66983
      54 -> 63         0.12507

 Excited State   3:      Triplet-A      3.3783 eV  367.00 nm  f=0.0000  <S**2>=2.000
      52 -> 56        -0.11996
      53 -> 56         0.56589
      54 -> 56         0.12940
      55 -> 56         0.13298
      55 -> 57        -0.29634

 Excited State   4:      Singlet-A      3.5665 eV  347.64 nm  f=0.0536  <S**2>=0.000
      54 -> 56        -0.29715
      55 -> 56         0.62944

 Excited State   5:      Singlet-A      3.7430 eV  331.24 nm  f=0.0219  <S**2>=0.000
      54 -> 56         0.62499
      55 -> 56         0.29067

 Excited State   6:      Singlet-A      4.8239 eV  257.02 nm  f=0.1019  <S**2>=0.000
      53 -> 56         0.59555
      55 -> 57        -0.36054

 The electronic state is 1-A.
 Alpha  occ. eigenvalues -- -101.56486 -19.14847 -14.37797 -10.28372 -10.27761
 Alpha  occ. eigenvalues --  -10.26212 -10.24598 -10.22238 -10.21887 -10.21268
 Alpha  occ. eigenvalues --  -10.20647 -10.20646 -10.20524 -10.19123  -9.47999
 Alpha  occ. eigenvalues --   -7.24403  -7.23444  -7.23396  -1.04552  -0.97913
 Alpha  occ. eigenvalues --   -0.90255  -0.84656  -0.81441  -0.78094  -0.76032
 Alpha  occ. eigenvalues --   -0.74298  -0.68263  -0.64249  -0.61934  -0.59720
 Alpha  occ. eigenvalues --   -0.57658  -0.54249  -0.51147  -0.49910  -0.48190
 Alpha  occ. eigenvalues --   -0.47146  -0.46098  -0.45912  -0.43771  -0.43310
 Alpha  occ. eigenvalues --   -0.42494  -0.40938  -0.40197  -0.39421  -0.38400
 Alpha  occ. eigenvalues --   -0.37478  -0.37071  -0.35440  -0.35219  -0.34785
 Alpha  occ. eigenvalues --   -0.32634  -0.31298  -0.26786  -0.25924  -0.22863
 Alpha virt. eigenvalues --   -0.07404  -0.02118  -0.00995   0.00286   0.00859
 Alpha virt. eigenvalues --    0.01234   0.01599   0.01752   0.02513   0.03018
 Alpha virt. eigenvalues --    0.04409   0.04487   0.05194   0.05653   0.05982

 Mulliken charges:
               1
     1  C   -0.688207
     2  C   -0.014104
     3  C   -0.259040
     4  C    0.060116
     5  N   -0.304430
     6  C   -1.674268
     7  C   -0.104764
     8  C   -0.103354
     9  Cl   0.261784
    10  C   -0.253619
    11  C    0.197070
    12  C    1.095803
    13  C    0.336868
    14  O   -0.475528
    15  H    0.148531
    16  H    0.152682
    17  H    0.148958
    18  H    0.118810
    19  H    0.144669
    20  H    0.174206
    21  H    0.145275
    22  H    0.161669
    23  H    0.287531
    24  H    0.139472
    25  H    0.145680
    26  H    0.158190
 Sum of Mulliken charges =  -0.00000

 Dipole moment (field-independent basis, Debye):
    X=              1.4188    Y=             -3.2115    Z=             -0.2409  Tot=              3.5192
 Quadrupole moment (field-independent basis, Debye-Ang):
   XX=            -90.3207   YY=            -95.5282   ZZ=            -92.1258
   XY=            -10.7250   XZ=             -1.9095   YZ=              1.6349

 Normal termination of Gaussian 16 at Tue Sep 30 11:40:09 2025.
