 Gaussian 16, Revision C.02,
 Gaussian 16:  ES64L-G16RevC.02  7-Dec-2021

 ----------------------------------------------------------
 # td=(50-50,nstates=3) b3lyp/6-31+g(d,p) geom=connectivity
 ----------------------------------------------------------

 -------------------
 Title Card Required
 -------------------
 Symbolic Z-matrix:
 Charge =  0 Multiplicity = 1

                         Standard orientation:
 ---------------------------------------------------------------------
 Center     Atomic      Atomic             Coordinates (Angstroms)
 Number     Number       Type             X           Y           Z
 ---------------------------------------------------------------------
      1          6           0        0.628418    3.593331    0.941736
      2          6           0        0.959915    2.961090   -0.402098
      3          8           0        1.407263    1.589210   -0.263809
      4          6           0        0.547251    0.572111   -0.149646
      5          6           0       -0.818029    0.681540   -0.144822
      6          6           0       -1.659223   -0.474667   -0.038331
      7          6           0       -3.049084   -0.361021   -0.037957
      8          6           0       -3.902075   -1.499109    0.067141
      9          7           0       -4.594603   -2.432392    0.153455
     10          6           0       -3.688048    0.909864   -0.143454
     11          7           0       -4.182824    1.961555   -0.229775
     12          6           0       -1.030138   -1.775122    0.072747
     13          6           0        0.318859   -1.893584    0.075437
     14          6           0        1.191530   -0.742047   -0.033946
     15          6           0        2.568563   -0.912391   -0.028401
     16          6           0        3.555577    0.117530   -0.128958
     17          7           0        4.447876    0.862625   -0.201807
     18          6           0        3.129700   -2.225603    0.088036
     19          7           0        3.588540   -3.291668    0.182577
     20          1           0        0.365821    4.645063    0.787046
     21          1           0       -0.216061    3.105266    1.435739
     22          1           0        1.495201    3.550677    1.606855
     23          1           0        1.814755    3.455649   -0.866647
     24          1           0        0.120037    2.995686   -1.104230
     25          1           0       -1.288936    1.652678   -0.219789
     26          1           0       -1.655610   -2.657161    0.155165
     27          1           0        0.774477   -2.873901    0.160273
 ---------------------------------------------------------------------

 SCF Done:  E(RB3LYP) =  -832.459200065     A.U. after   18 cycles

 Excitation energies and oscillator strengths:

 Excited State   1:      Triplet-A      0.6976 eV 1777.30 nm  f=0.0000  <S**2>=2.000
      63 -> 65        -0.12855
      64 -> 65         0.76226
      64 <- 65         0.32200
 This state for optimization and/or second-order correction.
 Total Energy, E(TD-HF/TD-DFT) =  -832.433563781
 Copying the excited state density for this state as the 1-particle RhoCI density.

 Excited State   2:      Triplet-A      2.0551 eV  603.31 nm  f=0.0000  <S**2>=2.000
      63 -> 65         0.68711
      64 -> 65         0.10782

 Excited State   3:      Singlet-A      2.4939 eV  497.14 nm  f=0.2165  <S**2>=0.000
      63 -> 65         0.48513
      64 -> 65         0.51592

 Excited State   4:      Singlet-A      3.0442 eV  407.27 nm  f=0.7641  <S**2>=0.000
      63 -> 65         0.50610
      64 -> 65        -0.50074
      64 <- 65         0.13422

 Excited State   5:      Triplet-A      3.0577 eV  405.48 nm  f=0.0000  <S**2>=2.000
      62 -> 65         0.65688
      64 -> 66        -0.21725

 Excited State   6:      Singlet-A      3.9985 eV  310.08 nm  f=0.0000  <S**2>=0.000
      61 -> 65         0.70098

 The electronic state is 1-A.
 Alpha  occ. eigenvalues --  -19.24647 -14.38891 -14.38447 -14.38178 -14.38150
 Alpha  occ. eigenvalues --  -10.33224 -10.32108 -10.30893 -10.30001 -10.29446
 Alpha  occ. eigenvalues --  -10.29143 -10.28014 -10.27645 -10.27631 -10.27413
 Alpha  occ. eigenvalues --  -10.26622 -10.26454 -10.25406 -10.22126  -1.13460
 Alpha  occ. eigenvalues --   -0.96402  -0.95957  -0.94375  -0.94298  -0.93202
 Alpha  occ. eigenvalues --   -0.89183  -0.84268  -0.83236  -0.80233  -0.76631
 Alpha  occ. eigenvalues --   -0.70995  -0.68958  -0.66224  -0.63948  -0.60240
 Alpha  occ. eigenvalues --   -0.59994  -0.57968  -0.54435  -0.53578  -0.50746
 Alpha  occ. eigenvalues --   -0.50568  -0.48484  -0.47135  -0.46438  -0.45175
 Alpha  occ. eigenvalues --   -0.43715  -0.43333  -0.41534  -0.41103  -0.40935
 Alpha  occ. eigenvalues --   -0.40721  -0.40158  -0.40118  -0.39232  -0.38610
 Alpha  occ. eigenvalues --   -0.38269  -0.37971  -0.37846  -0.37815  -0.36878
 Alpha  occ. eigenvalues --   -0.35731  -0.34642  -0.30289  -0.26752
 Alpha virt. eigenvalues --   -0.17782  -0.07126  -0.05772  -0.04147  -0.03670
 Alpha virt. eigenvalues --   -0.02154  -0.00922  -0.00269   0.00145   0.00434
 Alpha virt. eigenvalues --    0.00700   0.00792   0.01268   0.02164   0.02282

 Mulliken charges:
               1
     1  C   -0.392014
     2  C    0.008110
     3  O   -0.289017
     4  C   -0.443268
     5  C   -0.283865
     6  C    1.305923
     7  C    0.836576
     8  C   -0.255806
     9  N   -0.474800
    10  C   -0.424681
    11  N   -0.458816
    12  C   -0.715923
    13  C   -0.737133
    14  C    0.785304
    15  C    1.647056
    16  C   -0.204465
    17  N   -0.474623
    18  C   -0.283707
    19  N   -0.451055
    20  H    0.165329
    21  H    0.160424
    22  H    0.174628
    23  H    0.169967
    24  H    0.141150
    25  H    0.149294
    26  H    0.172168
    27  H    0.173243
 Sum of Mulliken charges =  -0.00000

 Dipole moment (field-independent basis, Debye):
    X=              0.5237    Y=              2.9765    Z=             -0.0032  Tot=              3.0222
 Quadrupole moment (field-independent basis, Debye-Ang):
   XX=           -164.3171   YY=           -115.8265   ZZ=           -108.5028
   XY=              5.1199   XZ=              0.1124   YZ=              1.3663

 Normal termination of Gaussian 16 at Sun Aug 24 22:17:54 2025.
