 Gaussian 16, Revision C.02,
 Gaussian 16:  ES64L-G16RevC.02  7-Dec-2021

 ----------------------------------------------------------
 # td=(50-50,nstates=3) b3lyp/6-31+g(d,p) geom=connectivity
 ----------------------------------------------------------

 -------------------
 Title Card Required
 -------------------
 Symbolic Z-matrix:
 Charge =  0 Multiplicity = 1

                         Standard orientation:
 ---------------------------------------------------------------------
 Center     Atomic      Atomic             Coordinates (Angstroms)
 Number     Number       Type             X           Y           Z
 ---------------------------------------------------------------------
      1          6           0       -3.869012   -0.084889    0.000646
      2          6           0       -2.452010   -0.415328   -0.002620
      3          6           0       -1.262025   -0.668682   -0.001987
      4          6           0        0.103280   -1.000329   -0.001408
      5          6           0        1.128193   -0.094852   -0.000086
      6          6           0        2.490765   -0.538771    0.000823
      7          7           0        3.595450   -0.904658    0.001626
      8          6           0        0.897719    1.319436   -0.000151
      9          7           0        0.711532    2.467898   -0.000603
     10          1           0       -4.239118   -0.006038    1.029433
     11          1           0       -4.045274    0.875425   -0.494970
     12          1           0       -4.454539   -0.855884   -0.510895
     13          1           0        0.368600   -2.055684   -0.002028
 ---------------------------------------------------------------------

 SCF Done:  E(RB3LYP) =  -378.561000973     A.U. after   15 cycles

 Excitation energies and oscillator strengths:

 Excited State   1:      Triplet-A      2.1900 eV  566.14 nm  f=0.0000  <S**2>=2.000
      30 -> 31         0.70672
      30 <- 31         0.13676
 This state for optimization and/or second-order correction.
 Total Energy, E(TD-HF/TD-DFT) =  -378.480520877
 Copying the excited state density for this state as the 1-particle RhoCI density.

 Excited State   2:      Triplet-A      3.6376 eV  340.84 nm  f=0.0000  <S**2>=2.000
      29 -> 31         0.69853

 Excited State   3:      Singlet-A      3.8796 eV  319.58 nm  f=0.0001  <S**2>=0.000
      29 -> 31         0.70491

 Excited State   4:      Singlet-A      4.2971 eV  288.53 nm  f=0.5194  <S**2>=0.000
      30 -> 31         0.69283

 Excited State   5:      Triplet-A      4.4236 eV  280.28 nm  f=0.0000  <S**2>=2.000
      28 -> 31         0.66312

 Excited State   6:      Singlet-A      5.3423 eV  232.08 nm  f=0.0000  <S**2>=0.000
      27 -> 31         0.69980

 The electronic state is 1-A.
 Alpha  occ. eigenvalues --  -14.37128 -14.37117 -10.30109 -10.28756 -10.26380
 Alpha  occ. eigenvalues --  -10.26333 -10.25120 -10.24450 -10.23363  -0.94556
 Alpha  occ. eigenvalues --   -0.93087  -0.87873  -0.82519  -0.76811  -0.70645
 Alpha  occ. eigenvalues --   -0.63048  -0.56317  -0.51014  -0.48944  -0.46846
 Alpha  occ. eigenvalues --   -0.46698  -0.43843  -0.39596  -0.38952  -0.37129
 Alpha  occ. eigenvalues --   -0.36807  -0.35854  -0.35736  -0.30935  -0.27958
 Alpha virt. eigenvalues --   -0.12137  -0.02972  -0.01369  -0.00702   0.01230
 Alpha virt. eigenvalues --    0.01255   0.01663   0.03023   0.03255   0.03475
 Alpha virt. eigenvalues --    0.04362   0.04543   0.05572   0.06312   0.07097

 Mulliken charges:
               1
     1  C   -0.821772
     2  C    0.310651
     3  C    0.158077
     4  C    0.147213
     5  C    0.994034
     6  C   -0.004019
     7  N   -0.480749
     8  C   -0.563707
     9  N   -0.506993
    10  H    0.193223
    11  H    0.196641
    12  H    0.189425
    13  H    0.187978
 Sum of Mulliken charges =  -0.00000

 Dipole moment (field-independent basis, Debye):
    X=             -6.0510    Y=             -2.6052    Z=              0.0214  Tot=              6.5880
 Quadrupole moment (field-independent basis, Debye-Ang):
   XX=            -52.2076   YY=            -59.0043   ZZ=            -51.6352
   XY=              1.9542   XZ=             -0.1042   YZ=             -0.0005

 Normal termination of Gaussian 16 at Sun Aug 24 22:12:39 2025.
