 Gaussian 16, Revision C.02,
 Gaussian 16:  ES64L-G16RevC.02  7-Dec-2021

 ----------------------------------------------------------
 # td=(50-50,nstates=3) b3lyp/6-31+g(d,p) geom=connectivity
 ----------------------------------------------------------

 -------------------
 Title Card Required
 -------------------
 Symbolic Z-matrix:
 Charge =  0 Multiplicity = 1

                         Standard orientation:
 ---------------------------------------------------------------------
 Center     Atomic      Atomic             Coordinates (Angstroms)
 Number     Number       Type             X           Y           Z
 ---------------------------------------------------------------------
      1          6           0        5.409274    0.610540    0.333520
      2          6           0        4.428320   -0.134995   -0.577280
      3          7           0        3.088421   -0.338503    0.005869
      4          6           0        2.998979   -1.310599    1.113986
      5          6           0        2.530154   -0.696142    2.436772
      6          6           0        2.048820    0.477856   -0.345627
      7          6           0        2.430293    1.799669   -0.782467
      8          7           0        2.748697    2.856617   -1.155612
      9          6           0        0.665955    0.211778   -0.284584
     10          6           0       -0.251022    1.317654   -0.162319
     11          6           0       -1.603425    1.155721   -0.040461
     12          8           0       -2.486304    2.167799    0.112206
     13          6           0       -2.023179    3.514917    0.102296
     14          6           0       -2.195624   -0.171073   -0.051926
     15          6           0       -3.570164   -0.409227    0.101567
     16          6           0       -4.047524   -1.753302    0.064952
     17          7           0       -4.402620   -2.864541    0.028364
     18          6           0       -4.586703    0.570049    0.301663
     19          7           0       -5.493766    1.283615    0.471572
     20          6           0       -1.295283   -1.263656   -0.267180
     21          6           0        0.062430   -1.102809   -0.387605
     22          8           0        0.899743   -2.124877   -0.707949
     23          6           0        0.341183   -3.402319   -1.032075
     24          1           0        6.380104    0.691063   -0.166335
     25          1           0        5.055069    1.621734    0.551348
     26          1           0        5.565393    0.084030    1.280326
     27          1           0        4.820782   -1.128950   -0.824148
     28          1           0        4.312265    0.397522   -1.523267
     29          1           0        2.354063   -2.142422    0.825811
     30          1           0        4.007062   -1.714459    1.234799
     31          1           0        2.533034   -1.469586    3.211716
     32          1           0        3.192172    0.114435    2.756475
     33          1           0        1.512957   -0.302500    2.365978
     34          1           0        0.167718    2.314234   -0.117508
     35          1           0       -2.916893    4.128830    0.211384
     36          1           0       -1.341123    3.702678    0.940524
     37          1           0       -1.521998    3.751392   -0.843822
     38          1           0       -1.730928   -2.247739   -0.371469
     39          1           0        1.189399   -4.027291   -1.311947
     40          1           0       -0.173059   -3.841211   -0.170225
     41          1           0       -0.353555   -3.319821   -1.874439
 ---------------------------------------------------------------------

 SCF Done:  E(RB3LYP) =  -1028.04376358     A.U. after   19 cycles

 Excitation energies and oscillator strengths:

 Excited State   1:      Triplet-A      0.6800 eV 1823.21 nm  f=0.0000  <S**2>=2.000
      82 -> 83         0.76168
      82 <- 83         0.29735
 This state for optimization and/or second-order correction.
 Total Energy, E(TD-HF/TD-DFT) =  -1028.01877290
 Copying the excited state density for this state as the 1-particle RhoCI density.

 Excited State   2:      Triplet-A      2.2173 eV  559.17 nm  f=0.0000  <S**2>=2.000
      81 -> 83         0.69382

 Excited State   3:      Singlet-A      2.4957 eV  496.80 nm  f=0.7026  <S**2>=0.000
      81 -> 83         0.20139
      82 -> 83         0.68885
      82 <- 83        -0.16024

 Excited State   4:      Singlet-A      2.7947 eV  443.65 nm  f=0.1221  <S**2>=0.000
      81 -> 83         0.67036
      82 -> 83        -0.20375

 Excited State   5:      Triplet-A      3.0294 eV  409.27 nm  f=0.0000  <S**2>=2.000
      80 -> 83         0.58323
      82 -> 84         0.37544

 Excited State   6:      Singlet-A      3.8610 eV  321.12 nm  f=0.0707  <S**2>=0.000
      80 -> 83        -0.47953
      82 -> 84         0.50877

 The electronic state is 1-A.
 Alpha  occ. eigenvalues --  -19.22679 -19.20838 -14.41938 -14.37798 -14.34110
 Alpha  occ. eigenvalues --  -14.32898 -10.31100 -10.29717 -10.28373 -10.27236
 Alpha  occ. eigenvalues --  -10.26664 -10.26361 -10.25748 -10.25735 -10.25621
 Alpha  occ. eigenvalues --  -10.25568 -10.25046 -10.23661 -10.22825 -10.22392
 Alpha  occ. eigenvalues --  -10.21909 -10.21384 -10.21235  -1.11015  -1.09621
 Alpha  occ. eigenvalues --   -1.00650  -0.94074  -0.91613  -0.89585  -0.89236
 Alpha  occ. eigenvalues --   -0.84896  -0.80865  -0.80619  -0.79202  -0.76532
 Alpha  occ. eigenvalues --   -0.75258  -0.73159  -0.70031  -0.67635  -0.65902
 Alpha  occ. eigenvalues --   -0.65107  -0.61726  -0.58525  -0.57567  -0.56631
 Alpha  occ. eigenvalues --   -0.55264  -0.52990  -0.51733  -0.50801  -0.50293
 Alpha  occ. eigenvalues --   -0.49129  -0.49030  -0.48768  -0.47435  -0.47065
 Alpha  occ. eigenvalues --   -0.45717  -0.45615  -0.43350  -0.42929  -0.42487
 Alpha  occ. eigenvalues --   -0.41616  -0.41028  -0.40593  -0.40448  -0.39792
 Alpha  occ. eigenvalues --   -0.39539  -0.38782  -0.38338  -0.37567  -0.37208
 Alpha  occ. eigenvalues --   -0.36984  -0.36807  -0.36614  -0.35600  -0.33739
 Alpha  occ. eigenvalues --   -0.33552  -0.33130  -0.32211  -0.31460  -0.29217
 Alpha  occ. eigenvalues --   -0.25086  -0.20906
 Alpha virt. eigenvalues --   -0.12600  -0.04163  -0.02349  -0.01870  -0.00815
 Alpha virt. eigenvalues --   -0.00713  -0.00317  -0.00052   0.00412   0.00841
 Alpha virt. eigenvalues --    0.01236   0.01908   0.02600   0.02714   0.03163

 Mulliken charges:
               1
     1  C   -0.485652
     2  C    0.146922
     3  N    0.184979
     4  C   -0.221489
     5  C   -0.415233
     6  C    0.472171
     7  C   -0.177252
     8  N   -0.491463
     9  C    0.052305
    10  C   -1.143820
    11  C   -0.031679
    12  O   -0.340867
    13  C   -0.113707
    14  C    1.001738
    15  C    1.233968
    16  C   -0.534955
    17  N   -0.505318
    18  C   -0.012062
    19  N   -0.548488
    20  C   -0.641926
    21  C    0.179620
    22  O   -0.324233
    23  C   -0.113150
    24  H    0.155888
    25  H    0.175786
    26  H    0.149149
    27  H    0.156851
    28  H    0.160754
    29  H    0.184673
    30  H    0.141887
    31  H    0.152562
    32  H    0.155967
    33  H    0.170277
    34  H    0.139784
    35  H    0.167367
    36  H    0.145913
    37  H    0.152837
    38  H    0.145122
    39  H    0.152346
    40  H    0.159800
    41  H    0.162627
 Sum of Mulliken charges =  -0.00000

 Dipole moment (field-independent basis, Debye):
    X=             11.9168    Y=             -1.9036    Z=              0.5427  Tot=             12.0801
 Quadrupole moment (field-independent basis, Debye-Ang):
   XX=           -175.4618   YY=           -138.2166   ZZ=           -136.1106
   XY=            -19.4746   XZ=              8.5062   YZ=              5.1807

 Normal termination of Gaussian 16 at Sun Aug 24 22:26:18 2025.
