 Gaussian 16, Revision C.02,
 Gaussian 16:  ES64L-G16RevC.02  7-Dec-2021

 ----------------------------------------------------------
 # td=(50-50,nstates=3) b3lyp/6-31+g(d,p) geom=connectivity
 ----------------------------------------------------------

 -------------------
 Title Card Required
 -------------------
 Symbolic Z-matrix:
 Charge =  0 Multiplicity = 1

                         Standard orientation:
 ---------------------------------------------------------------------
 Center     Atomic      Atomic             Coordinates (Angstroms)
 Number     Number       Type             X           Y           Z
 ---------------------------------------------------------------------
      1          6           0       -2.706590   -2.817855   -2.202935
      2          6           0       -3.706679   -1.953438   -1.456402
      3          6           0       -5.006558   -2.483656   -1.258582
      4          6           0       -5.967695   -1.809530   -0.548444
      5          6           0       -5.687454   -0.532065   -0.006080
      6          7           0       -6.667645    0.056256    0.734514
      7          6           0       -6.381693    1.239241    1.246300
      8          7           0       -7.287756    1.815216    2.098268
      9          7           0       -5.258014    1.962070    1.011949
     10          6           0       -4.306874    1.417230    0.269835
     11          7           0       -3.219864    2.242530    0.068059
     12          6           0       -4.403761    0.064027   -0.249682
     13          6           0       -3.393862   -0.684342   -0.955209
     14          6           0       -1.955134   -0.207884   -1.099922
     15          6           0       -1.158794   -0.275373    0.232468
     16          6           0        0.240684    0.234000    0.078825
     17          6           0        1.340498   -0.515366    0.299153
     18          6           0        2.724288   -0.077161    0.168800
     19          6           0        3.793336   -0.905696    0.464721
     20          7           0        3.491717   -2.279150    0.936447
     21          8           0        3.464742   -2.454346    2.149535
     22          8           0        3.281192   -3.129169    0.076823
     23          6           0        5.182592   -0.550596    0.363566
     24         17           0        6.396225   -1.733398    0.762405
     25          6           0        5.563013    0.698418   -0.051493
     26          6           0        4.505907    1.581644   -0.360955
     27          6           0        3.123913    1.244862   -0.268745
     28          7           0        2.359580    2.265649   -0.626832
     29          8           0        3.209908    3.285453   -0.958002
     30          7           0        4.575790    2.852375   -0.789945
     31          8           0        5.490123    3.627983   -1.038439
     32          1           0       -2.345791   -2.342248   -3.122589
     33          1           0       -1.827212   -3.064162   -1.596688
     34          1           0       -3.171383   -3.764207   -2.491500
     35          1           0       -5.234685   -3.465425   -1.665599
     36          1           0       -6.951178   -2.230317   -0.369091
     37          1           0       -7.193578    2.803398    2.274032
     38          1           0       -8.214376    1.417237    2.112163
     39          1           0       -2.707065    2.168241   -0.794753
     40          1           0       -3.395364    3.191395    0.374044
     41          1           0       -1.441213   -0.834596   -1.829282
     42          1           0       -1.885307    0.799861   -1.521200
     43          1           0       -1.675968    0.336468    0.981194
     44          1           0       -1.156429   -1.308663    0.597278
     45          1           0        0.346702    1.269930   -0.232914
     46          1           0        1.197768   -1.547293    0.608695
     47          1           0        6.600032    0.995371   -0.142573
 ---------------------------------------------------------------------

 SCF Done:  E(RB3LYP) =  -1877.84960233     A.U. after   21 cycles

 Excitation energies and oscillator strengths:

 Excited State   1:      Triplet-A      1.1822 eV 1048.76 nm  f=0.0000  <S**2>=2.000
     109 ->115        -0.12910
     109 ->117         0.12176
     111 ->115         0.17924
     113 ->115         0.66747
     113 <-115         0.20452
 This state for optimization and/or second-order correction.
 Total Energy, E(TD-HF/TD-DFT) =  -1877.80615722
 Copying the excited state density for this state as the 1-particle RhoCI density.

 Excited State   2:      Triplet-A      1.7859 eV  694.22 nm  f=0.0000  <S**2>=2.000
     114 ->115         0.70191

 Excited State   3:      Singlet-A      1.7953 eV  690.59 nm  f=0.0105  <S**2>=0.000
     114 ->115         0.70662

 Excited State   4:      Triplet-A      2.3743 eV  522.19 nm  f=0.0000  <S**2>=2.000
     114 ->116         0.70473

 Excited State   5:      Singlet-A      2.3757 eV  521.89 nm  f=0.0001  <S**2>=0.000
     114 ->116         0.70600

 Excited State   6:      Singlet-A      2.8896 eV  429.07 nm  f=0.1760  <S**2>=0.000
     111 ->115        -0.14709
     113 ->115         0.62945
     113 ->116         0.25879

 The electronic state is 1-A.
 Alpha  occ. eigenvalues -- -101.59675 -19.31314 -19.23120 -19.23083 -19.22229
 Alpha  occ. eigenvalues --  -14.61340 -14.58005 -14.44442 -14.37050 -14.35436
 Alpha  occ. eigenvalues --  -14.33321 -14.31827 -10.31814 -10.30595 -10.29991
 Alpha  occ. eigenvalues --  -10.29508 -10.29086 -10.28965 -10.28217 -10.26584
 Alpha  occ. eigenvalues --  -10.23667 -10.23441 -10.23356 -10.22176 -10.21726
 Alpha  occ. eigenvalues --  -10.21629 -10.21519 -10.21037 -10.20280 -10.19741
 Alpha  occ. eigenvalues --  -10.19269  -9.51128  -7.27587  -7.26544  -7.26508
 Alpha  occ. eigenvalues --   -1.27043  -1.25363  -1.15399  -1.09896  -1.00853
 Alpha  occ. eigenvalues --   -0.96851  -0.95352  -0.92638  -0.92033  -0.90302
 Alpha  occ. eigenvalues --   -0.88201  -0.87446  -0.85901  -0.83971  -0.81967
 Alpha  occ. eigenvalues --   -0.79909  -0.77784  -0.77339  -0.74375  -0.71051
 Alpha  occ. eigenvalues --   -0.69738  -0.67728  -0.67584  -0.66016  -0.64598
 Alpha  occ. eigenvalues --   -0.63443  -0.61097  -0.59918  -0.59870  -0.58160
 Alpha  occ. eigenvalues --   -0.57168  -0.56629  -0.56338  -0.55090  -0.54969
 Alpha  occ. eigenvalues --   -0.54696  -0.53476  -0.53028  -0.52100  -0.50775
 Alpha  occ. eigenvalues --   -0.49912  -0.49079  -0.47870  -0.47227  -0.46388
 Alpha  occ. eigenvalues --   -0.46191  -0.45803  -0.45337  -0.44929  -0.44867
 Alpha  occ. eigenvalues --   -0.44412  -0.43741  -0.43058  -0.41875  -0.40752
 Alpha  occ. eigenvalues --   -0.40523  -0.39901  -0.39394  -0.38523  -0.37868
 Alpha  occ. eigenvalues --   -0.37120  -0.36728  -0.36281  -0.35979  -0.35831
 Alpha  occ. eigenvalues --   -0.35170  -0.35117  -0.34455  -0.33790  -0.32645
 Alpha  occ. eigenvalues --   -0.31682  -0.31653  -0.29360  -0.28713  -0.27319
 Alpha  occ. eigenvalues --   -0.25692  -0.25508  -0.25102  -0.21315
 Alpha virt. eigenvalues --   -0.13531  -0.11396  -0.06575  -0.05593  -0.04598
 Alpha virt. eigenvalues --   -0.02654  -0.01981  -0.01483  -0.00724   0.00060
 Alpha virt. eigenvalues --    0.00167   0.00384   0.00903   0.01236   0.01331

 Mulliken charges:
               1
     1  C   -0.660648
     2  C    0.064824
     3  C   -0.458243
     4  C   -0.540921
     5  C    0.006460
     6  N   -0.371916
     7  C    0.515336
     8  N   -0.530899
     9  N   -0.423028
    10  C    0.189010
    11  N   -0.546583
    12  C    0.200215
    13  C    0.483521
    14  C   -0.066755
    15  C   -0.565788
    16  C    0.559774
    17  C    0.168936
    18  C    1.155682
    19  C   -0.312417
    20  N   -0.346751
    21  O    0.047649
    22  O    0.034111
    23  C   -0.337045
    24  Cl   0.325223
    25  C    0.134192
    26  C   -0.761891
    27  C   -0.333629
    28  N   -0.591013
    29  O    0.411334
    30  N   -0.497767
    31  O    0.045877
    32  H    0.165607
    33  H    0.164946
    34  H    0.150786
    35  H    0.123521
    36  H    0.137502
    37  H    0.299436
    38  H    0.303685
    39  H    0.279024
    40  H    0.329523
    41  H    0.148299
    42  H    0.100880
    43  H    0.186483
    44  H    0.143857
    45  H    0.158982
    46  H    0.126550
    47  H    0.184069
 Sum of Mulliken charges =  -0.00000

 Dipole moment (field-independent basis, Debye):
    X=             -0.3286    Y=              1.2216    Z=             -1.7277  Tot=              2.1414
 Quadrupole moment (field-independent basis, Debye-Ang):
   XX=           -188.3368   YY=           -196.4283   ZZ=           -191.6129
   XY=             -9.3295   XZ=              1.9066   YZ=             10.1138

 Normal termination of Gaussian 16 at Tue Sep 30 12:26:58 2025.
