 Gaussian 16, Revision C.02,
 Gaussian 16:  ES64L-G16RevC.02  7-Dec-2021

 ----------------------------------------------------------
 # td=(50-50,nstates=3) b3lyp/6-31+g(d,p) geom=connectivity
 ----------------------------------------------------------

 -------------------
 Title Card Required
 -------------------
 Symbolic Z-matrix:
 Charge =  0 Multiplicity = 1

                         Standard orientation:
 ---------------------------------------------------------------------
 Center     Atomic      Atomic             Coordinates (Angstroms)
 Number     Number       Type             X           Y           Z
 ---------------------------------------------------------------------
      1          6           0        0.211932    3.144353   -0.194640
      2          7           0        0.179108    1.692514   -0.030315
      3          6           0       -0.595745    0.927690   -1.007637
      4          7           0       -1.604826    0.076387   -0.407059
      5          6           0       -2.700340    0.620591    0.395590
      6          6           0       -3.644121   -0.588678    0.575189
      7          6           0       -2.717464   -1.808119    0.430353
      8          6           0       -1.539645   -1.295591   -0.392474
      9          8           0       -0.666784   -1.970760   -0.928147
     10          7           0        1.340247    1.206777    0.494814
     11          6           0        1.669376   -0.030185    0.403731
     12          6           0        2.960344   -0.456660    1.070461
     13          6           0        3.948029   -0.972412    0.111292
     14          7           0        4.726012   -1.378040   -0.649764
     15          1           0        0.704894    3.574879    0.677512
     16          1           0        0.761116    3.456855   -1.096322
     17          1           0       -0.809668    3.530508   -0.250129
     18          1           0        0.047702    0.284841   -1.619532
     19          1           0       -1.090568    1.651348   -1.663778
     20          1           0       -3.179745    1.455620   -0.128403
     21          1           0       -2.320528    0.998781    1.354054
     22          1           0       -4.173570   -0.556159    1.530303
     23          1           0       -4.393646   -0.591391   -0.222727
     24          1           0       -3.175818   -2.670712   -0.058155
     25          1           0       -2.324680   -2.150018    1.396217
     26          1           0        1.088483   -0.801838   -0.105964
     27          1           0        3.391792    0.400426    1.597330
     28          1           0        2.770516   -1.246461    1.809847
 ---------------------------------------------------------------------

 SCF Done:  E(RB3LYP) =  -645.613895161     A.U. after   14 cycles

 Excitation energies and oscillator strengths:

 Excited State   1:      Triplet-A      3.4537 eV  358.99 nm  f=0.0000  <S**2>=2.000
      44 -> 53        -0.10597
      52 -> 53         0.60945
      52 -> 54        -0.28402
 This state for optimization and/or second-order correction.
 Total Energy, E(TD-HF/TD-DFT) =  -645.486972503
 Copying the excited state density for this state as the 1-particle RhoCI density.

 Excited State   2:      Triplet-A      4.8570 eV  255.27 nm  f=0.0000  <S**2>=2.000
      49 -> 53        -0.43289
      49 -> 54         0.20383
      50 -> 53         0.26248
      50 -> 54        -0.11230
      51 -> 53         0.36406
      51 -> 54        -0.15684

 Excited State   3:      Triplet-A      5.0266 eV  246.65 nm  f=0.0000  <S**2>=2.000
      49 -> 55         0.17883
      50 -> 55        -0.10965
      51 -> 54        -0.16196
      51 -> 55         0.60073
      52 -> 55        -0.11877

 Excited State   4:      Singlet-A      5.1665 eV  239.97 nm  f=0.0647  <S**2>=0.000
      52 -> 53         0.59884
      52 -> 54         0.35325

 Excited State   5:      Singlet-A      5.4057 eV  229.36 nm  f=0.0224  <S**2>=0.000
      50 -> 54         0.10324
      50 -> 55        -0.33001
      52 -> 53         0.16947
      52 -> 54        -0.24112
      52 -> 55         0.51756

 Excited State   6:      Singlet-A      5.5025 eV  225.32 nm  f=0.1086  <S**2>=0.000
      50 -> 53         0.10759
      51 -> 53         0.10066
      52 -> 53        -0.28685
      52 -> 54         0.50623
      52 -> 55         0.29337
      52 -> 56        -0.13989

 The electronic state is 1-A.
 Alpha  occ. eigenvalues --  -19.13673 -14.39613 -14.38650 -14.38407 -14.33629
 Alpha  occ. eigenvalues --  -10.30357 -10.27532 -10.24819 -10.24070 -10.23340
 Alpha  occ. eigenvalues --  -10.23075 -10.23034 -10.21791 -10.21338  -1.05515
 Alpha  occ. eigenvalues --   -1.02665  -0.96552  -0.90480  -0.87014  -0.81965
 Alpha  occ. eigenvalues --   -0.77891  -0.73721  -0.73349  -0.67970  -0.63358
 Alpha  occ. eigenvalues --   -0.59980  -0.55875  -0.54643  -0.52716  -0.51851
 Alpha  occ. eigenvalues --   -0.50158  -0.49715  -0.47341  -0.45969  -0.45559
 Alpha  occ. eigenvalues --   -0.44222  -0.42745  -0.42546  -0.41355  -0.41236
 Alpha  occ. eigenvalues --   -0.40611  -0.40282  -0.38025  -0.36923  -0.35732
 Alpha  occ. eigenvalues --   -0.35347  -0.32961  -0.32515  -0.29603  -0.26906
 Alpha  occ. eigenvalues --   -0.26669  -0.23384
 Alpha virt. eigenvalues --   -0.02165  -0.01112  -0.00050   0.00211   0.00519
 Alpha virt. eigenvalues --    0.01158   0.02300   0.02460   0.03123   0.03170
 Alpha virt. eigenvalues --    0.03439   0.04372   0.04495   0.04861   0.05858

 Mulliken charges:
               1
     1  C   -0.287068
     2  N    0.059056
     3  C   -0.287852
     4  N   -0.020763
     5  C   -0.099368
     6  C   -0.443863
     7  C   -0.138629
     8  C    0.083519
     9  O   -0.478422
    10  N   -0.071203
    11  C   -0.004917
    12  C   -0.331060
    13  C    0.224769
    14  N   -0.510603
    15  H    0.170223
    16  H    0.143149
    17  H    0.143265
    18  H    0.179092
    19  H    0.148294
    20  H    0.139554
    21  H    0.159427
    22  H    0.151731
    23  H    0.161819
    24  H    0.175838
    25  H    0.174766
    26  H    0.168021
    27  H    0.200861
    28  H    0.190364
 Sum of Mulliken charges =  -0.00000

 Dipole moment (field-independent basis, Debye):
    X=             -6.9340    Y=              3.8675    Z=              2.7998  Tot=              8.4188
 Quadrupole moment (field-independent basis, Debye-Ang):
   XX=            -97.5524   YY=            -86.9072   ZZ=            -83.7183
   XY=              6.7371   XZ=              8.1959   YZ=             -9.5076

 Normal termination of Gaussian 16 at Mon Aug 11 11:27:07 2025.
