 Gaussian 16, Revision C.02,
 Gaussian 16:  ES64L-G16RevC.02  7-Dec-2021

 ----------------------------------------------------------
 # td=(50-50,nstates=3) b3lyp/6-31+g(d,p) geom=connectivity
 ----------------------------------------------------------

 -------------------
 Title Card Required
 -------------------
 Symbolic Z-matrix:
 Charge =  0 Multiplicity = 1

                         Standard orientation:
 ---------------------------------------------------------------------
 Center     Atomic      Atomic             Coordinates (Angstroms)
 Number     Number       Type             X           Y           Z
 ---------------------------------------------------------------------
      1          6           0       -0.738759    2.777813   -0.212135
      2          7           0       -0.257314    1.398375   -0.273442
      3          6           0       -1.099809    0.398053   -0.886952
      4          6           0       -1.539845   -0.709715    0.138540
      5          6           0       -2.393359   -0.136215    1.192222
      6          7           0       -3.056135    0.353574    2.008493
      7          6           0       -2.222873   -1.812148   -0.558330
      8          7           0       -2.728389   -2.664017   -1.162327
      9          7           0        1.090453    1.280191   -0.249550
     10          6           0        1.698170    0.186775   -0.538084
     11          6           0        3.208481    0.164300   -0.460103
     12          6           0        3.695700   -0.873768    0.459644
     13          7           0        4.056144   -1.709425    1.181062
     14          1           0       -0.055486    3.345201    0.419438
     15          1           0       -0.778054    3.245660   -1.206595
     16          1           0       -1.734091    2.797635    0.237509
     17          1           0       -1.997449    0.875581   -1.285602
     18          1           0       -0.588455   -0.096219   -1.723154
     19          1           0       -0.644132   -1.118648    0.623067
     20          1           0        1.207240   -0.744441   -0.830275
     21          1           0        3.647429   -0.029825   -1.448107
     22          1           0        3.563456    1.143600   -0.124745
 ---------------------------------------------------------------------

 SCF Done:  E(RB3LYP) =  -583.946101537     A.U. after   15 cycles

 Excitation energies and oscillator strengths:

 Excited State   1:      Triplet-A      3.4049 eV  364.14 nm  f=0.0000  <S**2>=2.000
      46 -> 47         0.64943
      46 -> 49         0.19115
 This state for optimization and/or second-order correction.
 Total Energy, E(TD-HF/TD-DFT) =  -583.820974598
 Copying the excited state density for this state as the 1-particle RhoCI density.

 Excited State   2:      Triplet-A      4.9720 eV  249.37 nm  f=0.0000  <S**2>=2.000
      45 -> 47         0.65163
      45 -> 49         0.18337

 Excited State   3:      Triplet-A      5.0385 eV  246.07 nm  f=0.0000  <S**2>=2.000
      46 -> 48         0.68375
      46 -> 49         0.11563

 Excited State   4:      Singlet-A      5.1286 eV  241.75 nm  f=0.0248  <S**2>=0.000
      46 -> 47        -0.21051
      46 -> 48         0.66092
      46 -> 49         0.12148

 Excited State   5:      Singlet-A      5.1796 eV  239.37 nm  f=0.1180  <S**2>=0.000
      46 -> 47         0.58885
      46 -> 48         0.24431
      46 -> 49        -0.28560

 Excited State   6:      Singlet-A      5.5786 eV  222.25 nm  f=0.1881  <S**2>=0.000
      46 -> 47         0.28528
      46 -> 49         0.62493

 The electronic state is 1-A.
 Alpha  occ. eigenvalues --  -14.42751 -14.41379 -14.38440 -14.38154 -14.35687
 Alpha  occ. eigenvalues --  -10.32100 -10.29258 -10.27635 -10.27428 -10.26482
 Alpha  occ. eigenvalues --  -10.26376 -10.25064 -10.24711  -1.05920  -0.95849
 Alpha  occ. eigenvalues --   -0.94392  -0.92592  -0.90369  -0.86337  -0.80362
 Alpha  occ. eigenvalues --   -0.75686  -0.70270  -0.62828  -0.60380  -0.57682
 Alpha  occ. eigenvalues --   -0.56264  -0.53842  -0.52814  -0.50702  -0.48139
 Alpha  occ. eigenvalues --   -0.46273  -0.45363  -0.44884  -0.42763  -0.40746
 Alpha  occ. eigenvalues --   -0.40221  -0.39806  -0.38219  -0.38023  -0.37689
 Alpha  occ. eigenvalues --   -0.36854  -0.36289  -0.35062  -0.34552  -0.31721
 Alpha  occ. eigenvalues --   -0.25815
 Alpha virt. eigenvalues --   -0.04776  -0.03948  -0.02935  -0.01375  -0.00793
 Alpha virt. eigenvalues --   -0.00546  -0.00458   0.00560   0.00827   0.01176
 Alpha virt. eigenvalues --    0.01394   0.02106   0.03251   0.03562   0.03967

 Mulliken charges:
               1
     1  C   -0.233324
     2  N    0.069721
     3  C   -0.846544
     4  C    0.528591
     5  C    0.405515
     6  N   -0.448509
     7  C   -0.084107
     8  N   -0.446235
     9  N    0.016499
    10  C    0.049105
    11  C   -0.345803
    12  C    0.217238
    13  N   -0.492952
    14  H    0.176957
    15  H    0.147241
    16  H    0.171543
    17  H    0.188406
    18  H    0.167410
    19  H    0.233540
    20  H    0.118546
    21  H    0.198391
    22  H    0.208773
 Sum of Mulliken charges =  -0.00000

 Dipole moment (field-independent basis, Debye):
    X=              0.8835    Y=              4.2760    Z=             -4.0346  Tot=              5.9450
 Quadrupole moment (field-independent basis, Debye-Ang):
   XX=            -98.9971   YY=            -85.7068   ZZ=            -84.8037
   XY=              1.7591   XZ=             -5.4703   YZ=             -2.8954

 Normal termination of Gaussian 16 at Wed Aug 27 21:07:04 2025.
