 Gaussian 16, Revision C.02,
 Gaussian 16:  ES64L-G16RevC.02  7-Dec-2021

 ----------------------------------------------------------
 # td=(50-50,nstates=3) b3lyp/6-31+g(d,p) geom=connectivity
 ----------------------------------------------------------

 -------------------
 Title Card Required
 -------------------
 Symbolic Z-matrix:
 Charge =  0 Multiplicity = 1

                         Standard orientation:
 ---------------------------------------------------------------------
 Center     Atomic      Atomic             Coordinates (Angstroms)
 Number     Number       Type             X           Y           Z
 ---------------------------------------------------------------------
      1          6           0        6.556757   -2.252352    0.000654
      2          6           0        5.457491   -1.288762   -0.000039
      3          6           0        4.557771   -0.477503   -0.001128
      4          6           0        3.453115    0.483198   -0.001935
      5          6           0        2.105619   -0.240444    0.000080
      6          8           0        1.079655    0.774705    0.000133
      7          6           0       -0.212540    0.426040    0.000111
      8          6           0       -0.672772   -0.863757    0.000167
      9          6           0       -2.077988   -1.153481   -0.000128
     10          6           0       -2.546354   -2.466227   -0.000003
     11          6           0       -3.939494   -2.772477   -0.000250
     12          7           0       -5.078816   -3.017095   -0.000647
     13          6           0       -1.649173   -3.575256    0.000701
     14          7           0       -0.896741   -4.465139    0.001110
     15          6           0       -3.007878   -0.042729   -0.000221
     16          6           0       -2.560627    1.235525   -0.000244
     17          6           0       -1.147430    1.556624   -0.000060
     18          6           0       -0.739540    2.882972    0.000181
     19          6           0        0.608219    3.359683    0.001036
     20          7           0        1.658804    3.862261    0.001851
     21          6           0       -1.712581    3.934672   -0.000197
     22          7           0       -2.500569    4.792021   -0.000601
     23          1           0        6.243132   -3.207727   -0.433781
     24          1           0        7.403763   -1.879696   -0.585621
     25          1           0        6.911731   -2.446312    1.018591
     26          1           0        3.510369    1.137667    0.875644
     27          1           0        3.509364    1.134913   -0.881622
     28          1           0        1.993772   -0.866293   -0.892319
     29          1           0        1.995699   -0.864637    0.893876
     30          1           0        0.023855   -1.691754    0.000454
     31          1           0       -4.072788   -0.247706   -0.000302
     32          1           0       -3.270474    2.055210   -0.000334
 ---------------------------------------------------------------------

 SCF Done:  E(RB3LYP) =  -947.930576540     A.U. after   18 cycles

 Excitation energies and oscillator strengths:

 Excited State   1:      Triplet-A      0.7005 eV 1770.03 nm  f=0.0000  <S**2>=2.000
      71 -> 75        -0.11556
      73 -> 75        -0.12345
      74 -> 75         0.75455
      74 <- 75         0.31944
 This state for optimization and/or second-order correction.
 Total Energy, E(TD-HF/TD-DFT) =  -947.904835039
 Copying the excited state density for this state as the 1-particle RhoCI density.

 Excited State   2:      Triplet-A      2.0754 eV  597.40 nm  f=0.0000  <S**2>=2.000
      71 -> 75         0.61480
      73 -> 75         0.29909
      74 -> 75         0.13604

 Excited State   3:      Singlet-A      2.2047 eV  562.38 nm  f=0.0041  <S**2>=0.000
      73 -> 75         0.68233
      74 -> 75         0.18029

 Excited State   4:      Triplet-A      2.2372 eV  554.19 nm  f=0.0000  <S**2>=2.000
      71 -> 75        -0.30943
      73 -> 75         0.63076

 Excited State   5:      Singlet-A      2.3057 eV  537.73 nm  f=0.0000  <S**2>=0.000
      72 -> 75         0.70694

 Excited State   6:      Singlet-A      2.5534 eV  485.57 nm  f=0.2384  <S**2>=0.000
      71 -> 75         0.48594
      73 -> 75        -0.15928
      74 -> 75         0.49014

 The electronic state is 1-A.
 Alpha  occ. eigenvalues --  -19.24896 -14.38930 -14.38467 -14.38276 -14.38260
 Alpha  occ. eigenvalues --  -10.33211 -10.32159 -10.31008 -10.30105 -10.29494
 Alpha  occ. eigenvalues --  -10.29234 -10.28056 -10.27743 -10.27638 -10.27479
 Alpha  occ. eigenvalues --  -10.26678 -10.26511 -10.25519 -10.24010 -10.22221
 Alpha  occ. eigenvalues --  -10.20814 -10.20261  -1.13802  -0.96476  -0.96003
 Alpha  occ. eigenvalues --   -0.94485  -0.94337  -0.93290  -0.89271  -0.84785
 Alpha  occ. eigenvalues --   -0.84074  -0.81367  -0.78965  -0.76947  -0.73245
 Alpha  occ. eigenvalues --   -0.69637  -0.68448  -0.66183  -0.63898  -0.61109
 Alpha  occ. eigenvalues --   -0.60074  -0.58241  -0.54620  -0.53913  -0.52916
 Alpha  occ. eigenvalues --   -0.50314  -0.49716  -0.48020  -0.47525  -0.45753
 Alpha  occ. eigenvalues --   -0.45337  -0.45327  -0.44737  -0.44230  -0.43938
 Alpha  occ. eigenvalues --   -0.42558  -0.41070  -0.40885  -0.40761  -0.40572
 Alpha  occ. eigenvalues --   -0.40246  -0.40155  -0.38521  -0.38341  -0.38032
 Alpha  occ. eigenvalues --   -0.37998  -0.37796  -0.36915  -0.36038  -0.34697
 Alpha  occ. eigenvalues --   -0.30525  -0.27858  -0.27497  -0.26860
 Alpha virt. eigenvalues --   -0.17850  -0.07180  -0.05804  -0.04250  -0.03726
 Alpha virt. eigenvalues --   -0.02005  -0.00878  -0.00248   0.00131   0.00248
 Alpha virt. eigenvalues --    0.00631   0.01166   0.01240   0.01433   0.01927

 Mulliken charges:
               1
     1  C   -0.871539
     2  C    0.136954
     3  C    0.013260
     4  C   -0.205383
     5  C    0.051108
     6  O   -0.334275
     7  C    0.402602
     8  C   -0.300949
     9  C    0.899170
    10  C    0.766051
    11  C   -0.194831
    12  N   -0.468325
    13  C   -0.553425
    14  N   -0.465069
    15  C   -0.781339
    16  C   -0.632749
    17  C    0.620937
    18  C    1.479858
    19  C   -0.145142
    20  N   -0.489949
    21  C   -0.235495
    22  N   -0.443778
    23  H    0.178517
    24  H    0.179874
    25  H    0.178430
    26  H    0.191125
    27  H    0.191056
    28  H    0.163626
    29  H    0.163972
    30  H    0.159584
    31  H    0.172916
    32  H    0.173207
 Sum of Mulliken charges =  -0.00000

 Dipole moment (field-independent basis, Debye):
    X=              3.2526    Y=             -0.9654    Z=             -0.0047  Tot=              3.3928
 Quadrupole moment (field-independent basis, Debye-Ang):
   XX=           -134.3347   YY=           -173.6181   ZZ=           -125.9732
   XY=            -17.9510   XZ=             -0.0353   YZ=              0.0058

 Normal termination of Gaussian 16 at Mon Aug 11 11:28:06 2025.
