 Gaussian 16, Revision C.02,
 Gaussian 16:  ES64L-G16RevC.02  7-Dec-2021

 ----------------------------------------------------------
 # td=(50-50,nstates=3) b3lyp/6-31+g(d,p) geom=connectivity
 ----------------------------------------------------------

 -------------------
 Title Card Required
 -------------------
 Symbolic Z-matrix:
 Charge =  0 Multiplicity = 1

                         Standard orientation:
 ---------------------------------------------------------------------
 Center     Atomic      Atomic             Coordinates (Angstroms)
 Number     Number       Type             X           Y           Z
 ---------------------------------------------------------------------
      1          6           0       -4.193631   -2.672323    1.736743
      2          6           0       -3.462794   -1.500205    1.128739
      3          6           0       -4.154043   -0.376673    0.658600
      4          6           0       -3.478200    0.686048    0.061491
      5          6           0       -2.092117    0.639156   -0.060099
      6          7           0       -1.428762    1.739057   -0.705592
      7          6           0       -0.578967    1.673923   -1.755530
      8          6           0       -0.209615    3.010911   -2.063488
      9          8           0        0.499680    3.560128   -2.874263
     10          8           0       -0.952277    3.765069   -1.075157
     11          7           0       -1.677217    2.951523   -0.265402
     12          6           0       -1.359268   -0.459980    0.419270
     13          6           0        0.130070   -0.503621    0.387962
     14          6           0        0.860427   -1.393219   -0.360512
     15          7           0        0.116818   -2.319254   -1.247349
     16          8           0       -0.337793   -1.843308   -2.283678
     17          8           0        0.005798   -3.480205   -0.872890
     18          6           0        2.302453   -1.465476   -0.378013
     19         17           0        3.086507   -2.611167   -1.425104
     20          6           0        3.053406   -0.619554    0.395273
     21          6           0        2.331924    0.292206    1.198177
     22          6           0        0.911474    0.371263    1.218677
     23          7           0        0.482652    1.290984    2.068451
     24          8           0        1.603497    1.843506    2.616905
     25          7           0        2.788104    1.208915    2.068283
     26          8           0        3.894546    1.566211    2.443538
     27          6           0       -2.066315   -1.518387    1.003486
     28          1           0       -5.161056   -2.369125    2.145947
     29          1           0       -4.380083   -3.445117    0.981142
     30          1           0       -3.611308   -3.133732    2.539582
     31          1           0       -5.235217   -0.331427    0.750561
     32          1           0       -4.014010    1.549214   -0.316956
     33          1           0       -0.344125    0.754143   -2.262882
     34          1           0        4.136332   -0.640897    0.392524
     35          1           0       -1.508752   -2.367407    1.387823
 ---------------------------------------------------------------------

 SCF Done:  E(RB3LYP) =  -1761.41809648     A.U. after   20 cycles

 Excitation energies and oscillator strengths:

 Excited State   1:      Triplet-A      1.1827 eV 1048.27 nm  f=0.0000  <S**2>=2.000
      98 ->100         0.66838
      98 ->101         0.18457
      99 ->100        -0.18614
      98 <-100         0.21899
 This state for optimization and/or second-order correction.
 Total Energy, E(TD-HF/TD-DFT) =  -1761.37463137
 Copying the excited state density for this state as the 1-particle RhoCI density.

 Excited State   2:      Triplet-A      1.7995 eV  688.97 nm  f=0.0000  <S**2>=2.000
      99 ->100        -0.21771
      99 ->102         0.61589
      99 ->103        -0.13307
      99 ->104        -0.14447
      99 ->105        -0.14416
      99 ->106         0.15824
      99 <-102         0.14702

 Excited State   3:      Triplet-A      2.0253 eV  612.19 nm  f=0.0000  <S**2>=2.000
      98 ->100         0.16227
      99 ->100         0.64607
      99 ->102         0.20025

 Excited State   4:      Singlet-A      2.0433 eV  606.77 nm  f=0.0142  <S**2>=0.000
      99 ->100         0.70555

 Excited State   5:      Singlet-A      2.4966 eV  496.61 nm  f=0.0010  <S**2>=0.000
      99 ->101         0.70488

 Excited State   6:      Singlet-A      2.9412 eV  421.55 nm  f=0.0432  <S**2>=0.000
      98 ->100         0.59669
      98 ->101        -0.36233

 The electronic state is 1-A.
 Alpha  occ. eigenvalues -- -101.60646 -19.31872 -19.25497 -19.24629 -19.24600
 Alpha  occ. eigenvalues --  -19.22939 -19.13991 -14.62846 -14.58627 -14.50042
 Alpha  occ. eigenvalues --  -14.45743 -14.45036 -10.32925 -10.32420 -10.32354
 Alpha  occ. eigenvalues --  -10.30799 -10.30222 -10.29712 -10.29435 -10.27982
 Alpha  occ. eigenvalues --  -10.27271 -10.25468 -10.25336 -10.24858 -10.24617
 Alpha  occ. eigenvalues --  -10.24185 -10.22146  -9.52086  -7.28552  -7.27501
 Alpha  occ. eigenvalues --   -7.27463  -1.28519  -1.25839  -1.20154  -1.16179
 Alpha  occ. eigenvalues --   -1.11436  -1.05922  -1.02734  -0.98016  -0.93551
 Alpha  occ. eigenvalues --   -0.93159  -0.91524  -0.88910  -0.84711  -0.83744
 Alpha  occ. eigenvalues --   -0.83035  -0.81634  -0.78010  -0.75671  -0.71312
 Alpha  occ. eigenvalues --   -0.69050  -0.68787  -0.68280  -0.66805  -0.65002
 Alpha  occ. eigenvalues --   -0.62155  -0.61661  -0.60646  -0.58686  -0.57720
 Alpha  occ. eigenvalues --   -0.57122  -0.56636  -0.55936  -0.54627  -0.54014
 Alpha  occ. eigenvalues --   -0.52862  -0.51767  -0.51050  -0.50157  -0.48833
 Alpha  occ. eigenvalues --   -0.48043  -0.47866  -0.46647  -0.45956  -0.45732
 Alpha  occ. eigenvalues --   -0.45574  -0.44651  -0.43402  -0.43027  -0.41600
 Alpha  occ. eigenvalues --   -0.40921  -0.40606  -0.40160  -0.39604  -0.39161
 Alpha  occ. eigenvalues --   -0.38659  -0.37237  -0.37102  -0.36904  -0.36287
 Alpha  occ. eigenvalues --   -0.35831  -0.33761  -0.33412  -0.32527  -0.30720
 Alpha  occ. eigenvalues --   -0.29708  -0.28509  -0.26559  -0.23935
 Alpha virt. eigenvalues --   -0.14357  -0.12701  -0.09063  -0.06983  -0.05879
 Alpha virt. eigenvalues --   -0.05348  -0.04654  -0.03515  -0.01676  -0.00991
 Alpha virt. eigenvalues --   -0.00142   0.00322   0.00972   0.01649   0.01860

 Mulliken charges:
               1
     1  C   -0.347186
     2  C    0.416927
     3  C   -0.429353
     4  C   -0.199143
     5  C    0.282574
     6  N    0.596075
     7  C   -0.020465
     8  C    0.512854
     9  O   -0.533551
    10  O   -0.005356
    11  N   -0.444545
    12  C   -0.058493
    13  C    0.550494
    14  C   -0.229280
    15  N   -0.292654
    16  O    0.025094
    17  O    0.068207
    18  C   -0.264317
    19  Cl   0.325071
    20  C    0.142447
    21  C   -0.504012
    22  C   -0.215826
    23  N   -0.548153
    24  O    0.455394
    25  N   -0.555691
    26  O    0.071950
    27  C   -0.141588
    28  H    0.161102
    29  H    0.182354
    30  H    0.165472
    31  H    0.143426
    32  H    0.164144
    33  H    0.195868
    34  H    0.188723
    35  H    0.141436
 Sum of Mulliken charges =  -0.00000

 Dipole moment (field-independent basis, Debye):
    X=             -3.5409    Y=             -6.8543    Z=              3.2054  Tot=              8.3543
 Quadrupole moment (field-independent basis, Debye-Ang):
   XX=           -138.4744   YY=           -189.5939   ZZ=           -177.4781
   XY=             -3.8882   XZ=             -5.9577   YZ=              0.0054

 Normal termination of Gaussian 16 at Tue Sep 30 12:07:37 2025.
