 Gaussian 16, Revision C.02,
 Gaussian 16:  ES64L-G16RevC.02  7-Dec-2021

 ----------------------------------------------------------
 # td=(50-50,nstates=3) b3lyp/6-31+g(d,p) geom=connectivity
 ----------------------------------------------------------

 -------------------
 Title Card Required
 -------------------
 Symbolic Z-matrix:
 Charge =  0 Multiplicity = 1

                         Standard orientation:
 ---------------------------------------------------------------------
 Center     Atomic      Atomic             Coordinates (Angstroms)
 Number     Number       Type             X           Y           Z
 ---------------------------------------------------------------------
      1         17           0       -4.386832   -0.343641   -0.923163
      2          6           0       -3.449039    0.857897    0.065597
      3          6           0       -2.071712    0.378399    0.349932
      4          7           0       -0.968361    0.714353   -0.249303
      5          6           0       -0.026632   -0.036863    0.426832
      6          6           0        1.410423   -0.017114    0.101687
      7          6           0        2.147240   -1.186837   -0.129102
      8          9           0        1.513167   -2.375821   -0.058270
      9          6           0        3.497851   -1.179185   -0.453399
     10          6           0        4.155077    0.048200   -0.552636
     11          6           0        3.470037    1.244896   -0.331289
     12          6           0        2.120939    1.185690   -0.011262
     13          9           0        1.464790    2.342360    0.227626
     14          7           0       -0.518463   -0.784498    1.389334
     15          8           0       -1.889751   -0.511164    1.342168
     16          1           0       -3.394240    1.780274   -0.509319
     17          1           0       -4.007821    1.010520    0.988777
     18          1           0        4.006934   -2.120252   -0.626104
     19          1           0        5.210469    0.072801   -0.803780
     20          1           0        3.959855    2.209536   -0.395733
 ---------------------------------------------------------------------

 SCF Done:  E(RB3LYP) =  -1190.56104069     A.U. after   15 cycles

 Excitation energies and oscillator strengths:

 Excited State   1:      Triplet-A      3.5591 eV  348.36 nm  f=0.0000  <S**2>=2.000
      56 -> 59         0.13463
      57 -> 59         0.46761
      57 -> 60         0.35387
      58 -> 61         0.32503
 This state for optimization and/or second-order correction.
 Total Energy, E(TD-HF/TD-DFT) =  -1190.43024795
 Copying the excited state density for this state as the 1-particle RhoCI density.

 Excited State   2:      Triplet-A      3.9965 eV  310.23 nm  f=0.0000  <S**2>=2.000
      53 -> 59        -0.20804
      56 -> 59         0.40786
      57 -> 59         0.24284
      57 -> 60        -0.24183
      57 -> 62        -0.11067
      57 -> 64         0.11867
      58 -> 61        -0.33554

 Excited State   3:      Triplet-A      4.1709 eV  297.26 nm  f=0.0000  <S**2>=2.000
      57 -> 61         0.11954
      58 -> 59         0.49630
      58 -> 60         0.47840

 Excited State   4:      Singlet-A      4.7725 eV  259.79 nm  f=0.0115  <S**2>=0.000
      57 -> 61        -0.17659
      58 -> 59         0.67434
      58 -> 60         0.10516

 Excited State   5:      Singlet-A      5.0602 eV  245.02 nm  f=0.0458  <S**2>=0.000
      56 -> 59        -0.10504
      57 -> 59         0.67572
      57 -> 60        -0.13175

 Excited State   6:      Singlet-A      5.2558 eV  235.90 nm  f=0.0081  <S**2>=0.000
      57 -> 61        -0.30503
      58 -> 59        -0.17460
      58 -> 60         0.60708

 The electronic state is 1-A.
 Alpha  occ. eigenvalues -- -101.56323 -24.74493 -24.74325 -19.27757 -14.41916
 Alpha  occ. eigenvalues --  -14.37382 -10.32499 -10.31243 -10.31237 -10.29220
 Alpha  occ. eigenvalues --  -10.28907 -10.24714 -10.23581 -10.22536 -10.22500
 Alpha  occ. eigenvalues --   -9.47850  -7.24310  -7.23249  -7.23224  -1.25237
 Alpha  occ. eigenvalues --   -1.25118  -1.19481  -0.97093  -0.91888  -0.89603
 Alpha  occ. eigenvalues --   -0.86860  -0.80073  -0.78143  -0.74286  -0.69075
 Alpha  occ. eigenvalues --   -0.65661  -0.64365  -0.62299  -0.58414  -0.55392
 Alpha  occ. eigenvalues --   -0.54776  -0.52151  -0.51535  -0.50895  -0.49830
 Alpha  occ. eigenvalues --   -0.48721  -0.48416  -0.46763  -0.46205  -0.45219
 Alpha  occ. eigenvalues --   -0.44401  -0.42052  -0.40357  -0.38972  -0.38439
 Alpha  occ. eigenvalues --   -0.36575  -0.35918  -0.32992  -0.32522  -0.31977
 Alpha  occ. eigenvalues --   -0.31595  -0.28075  -0.27395
 Alpha virt. eigenvalues --   -0.07484  -0.05306  -0.03216  -0.01050  -0.00054
 Alpha virt. eigenvalues --    0.00567   0.01440   0.02256   0.03046   0.03815
 Alpha virt. eigenvalues --    0.04230   0.04674   0.04949   0.05297   0.06237

 Mulliken charges:
               1
     1  Cl   0.072514
     2  C   -0.427515
     3  C    0.064925
     4  N   -0.197847
     5  C    0.956409
     6  C    0.546293
     7  C   -0.733292
     8  F   -0.316784
     9  C    0.381381
    10  C   -0.331116
    11  C    0.354384
    12  C   -0.659549
    13  F   -0.312691
    14  N   -0.388338
    15  O    0.098244
    16  H    0.227028
    17  H    0.220819
    18  H    0.150601
    19  H    0.144978
    20  H    0.149557
 Sum of Mulliken charges =  -0.00000

 Dipole moment (field-independent basis, Debye):
    X=              2.1843    Y=              1.9598    Z=             -0.3718  Tot=              2.9581
 Quadrupole moment (field-independent basis, Debye-Ang):
   XX=            -72.3716   YY=            -93.2025   ZZ=            -95.6020
   XY=             -6.2396   XZ=             -6.2662   YZ=              3.4567

 Normal termination of Gaussian 16 at Wed Sep 24 11:24:42 2025.
