 Gaussian 16, Revision C.02,
 Gaussian 16:  ES64L-G16RevC.02  7-Dec-2021

 ----------------------------------------------------------
 # td=(50-50,nstates=3) b3lyp/6-31+g(d,p) geom=connectivity
 ----------------------------------------------------------

 -------------------
 Title Card Required
 -------------------
 Symbolic Z-matrix:
 Charge =  0 Multiplicity = 1

                         Standard orientation:
 ---------------------------------------------------------------------
 Center     Atomic      Atomic             Coordinates (Angstroms)
 Number     Number       Type             X           Y           Z
 ---------------------------------------------------------------------
      1          6           0       -3.707017   -1.781250    0.331108
      2          6           0       -2.945910   -0.670876   -0.370710
      3          8           0       -1.654613   -0.560671    0.244357
      4          6           0       -0.797326    0.402595   -0.349492
      5          6           0       -1.331138    1.779284   -0.143647
      6          7           0       -1.746883    2.851359    0.022846
      7          6           0        0.571395    0.274442    0.264275
      8          7           0        1.555346    0.012599   -0.522507
      9          7           0        2.822242   -0.061955   -0.071573
     10          6           0        3.709557   -0.799819   -0.962532
     11          6           0        3.092988   -0.138242    1.356219
     12          1           0       -4.700015   -1.894065   -0.116523
     13          1           0       -3.175234   -2.733274    0.241916
     14          1           0       -3.830939   -1.551366    1.393522
     15          1           0       -3.481955    0.284956   -0.285341
     16          1           0       -2.818692   -0.895724   -1.441048
     17          1           0       -0.705058    0.239097   -1.433291
     18          1           0        0.645256    0.423354    1.341276
     19          1           0        3.425009   -0.574559   -1.990985
     20          1           0        4.741821   -0.479365   -0.796238
     21          1           0        3.645469   -1.888495   -0.807899
     22          1           0        2.745538    0.769149    1.860880
     23          1           0        2.604007   -1.009113    1.823651
     24          1           0        4.171472   -0.216045    1.502534
 ---------------------------------------------------------------------

 SCF Done:  E(RB3LYP) =  -514.007138859     A.U. after   14 cycles

 Excitation energies and oscillator strengths:

 Excited State   1:      Triplet-A      3.2882 eV  377.06 nm  f=0.0000  <S**2>=2.000
      42 -> 43         0.66718
      42 -> 49        -0.10555
 This state for optimization and/or second-order correction.
 Total Energy, E(TD-HF/TD-DFT) =  -513.886301118
 Copying the excited state density for this state as the 1-particle RhoCI density.

 Excited State   2:      Triplet-A      4.8708 eV  254.54 nm  f=0.0000  <S**2>=2.000
      40 -> 43         0.55213
      41 -> 43         0.38295

 Excited State   3:      Singlet-A      5.1377 eV  241.32 nm  f=0.3154  <S**2>=0.000
      42 -> 43         0.64680
      42 -> 44         0.24216

 Excited State   4:      Triplet-A      5.3263 eV  232.78 nm  f=0.0000  <S**2>=2.000
      42 -> 44         0.68230
      42 -> 45        -0.11557

 Excited State   5:      Singlet-A      5.4853 eV  226.03 nm  f=0.1190  <S**2>=0.000
      42 -> 43        -0.23481
      42 -> 44         0.65822

 Excited State   6:      Singlet-A      5.7552 eV  215.43 nm  f=0.0074  <S**2>=0.000
      40 -> 43         0.11146
      41 -> 43         0.10989
      42 -> 45         0.66553
      42 -> 47         0.11207

 The electronic state is 1-A.
 Alpha  occ. eigenvalues --  -19.17895 -14.40013 -14.38867 -14.34704 -10.29235
 Alpha  occ. eigenvalues --  -10.24729 -10.23474 -10.23465 -10.23334 -10.22811
 Alpha  occ. eigenvalues --  -10.18858  -1.06032  -1.03189  -0.91128  -0.86823
 Alpha  occ. eigenvalues --   -0.79187  -0.74655  -0.73674  -0.67541  -0.63129
 Alpha  occ. eigenvalues --   -0.57873  -0.55531  -0.53824  -0.51232  -0.49864
 Alpha  occ. eigenvalues --   -0.48835  -0.46451  -0.45263  -0.42405  -0.42065
 Alpha  occ. eigenvalues --   -0.40160  -0.39923  -0.39604  -0.37893  -0.37097
 Alpha  occ. eigenvalues --   -0.36580  -0.35428  -0.34058  -0.32894  -0.29551
 Alpha  occ. eigenvalues --   -0.28548  -0.23202
 Alpha virt. eigenvalues --   -0.02931  -0.00293   0.00483   0.01556   0.02000
 Alpha virt. eigenvalues --    0.02320   0.03003   0.03387   0.03546   0.03984
 Alpha virt. eigenvalues --    0.04507   0.05382   0.05844   0.06284   0.06696

 Mulliken charges:
               1
     1  C   -0.665678
     2  C    0.117915
     3  O   -0.243326
     4  C   -0.502802
     5  C    0.351822
     6  N   -0.522326
     7  C    0.186728
     8  N   -0.140343
     9  N    0.115319
    10  C   -0.333316
    11  C   -0.331195
    12  H    0.148071
    13  H    0.161750
    14  H    0.163030
    15  H    0.145005
    16  H    0.121935
    17  H    0.172854
    18  H    0.132410
    19  H    0.168905
    20  H    0.146863
    21  H    0.142019
    22  H    0.155188
    23  H    0.156800
    24  H    0.152374
 Sum of Mulliken charges =  -0.00000

 Dipole moment (field-independent basis, Debye):
    X=              2.6498    Y=             -3.6325    Z=              0.1258  Tot=              4.4980
 Quadrupole moment (field-independent basis, Debye-Ang):
   XX=            -54.3314   YY=            -81.3178   ZZ=            -65.5541
   XY=              5.5919   XZ=              4.8263   YZ=              0.9738

 Normal termination of Gaussian 16 at Mon Aug 11 11:21:38 2025.
