 Gaussian 16, Revision C.02,
 Gaussian 16:  ES64L-G16RevC.02  7-Dec-2021

 ----------------------------------------------------------
 # td=(50-50,nstates=3) b3lyp/6-31+g(d,p) geom=connectivity
 ----------------------------------------------------------

 -------------------
 Title Card Required
 -------------------
 Symbolic Z-matrix:
 Charge =  0 Multiplicity = 1

                         Standard orientation:
 ---------------------------------------------------------------------
 Center     Atomic      Atomic             Coordinates (Angstroms)
 Number     Number       Type             X           Y           Z
 ---------------------------------------------------------------------
      1          6           0        4.070857   -1.590959    2.321407
      2          6           0        2.973882   -1.435314    1.550369
      3          6           0        1.736507   -2.005249    2.008771
      4          7           0        0.742999   -2.433557    2.436696
      5          6           0        2.983633   -0.589765    0.340424
      6          6           0        2.348530   -0.573861   -0.852895
      7          6           0        1.396060   -1.511272   -1.568548
      8          6           0        1.357267   -2.965619   -1.073310
      9          6           0       -0.021386   -0.897312   -1.763886
     10          6           0       -0.929521   -0.840672   -0.513326
     11          7           0       -1.560658    0.467969   -0.259477
     12          6           0       -0.791532    1.593491    0.269587
     13          6           0       -0.807584    2.831455   -0.643331
     14          6           0        0.035657    4.004916   -0.115761
     15          6           0       -0.518366    4.675467    1.149426
     16          6           0       -2.895119    0.281056    0.047953
     17          6           0       -3.827881    1.225882    0.512599
     18          6           0       -5.140751    0.802649    0.719137
     19          6           0       -5.550988   -0.523076    0.479120
     20          6           0       -4.623415   -1.461032    0.032980
     21          6           0       -3.300677   -1.056069   -0.164975
     22          6           0       -2.129917   -1.814276   -0.597480
     23          8           0       -2.052511   -2.972487   -0.982543
     24          6           0        2.892836    0.617167   -1.611860
     25          6           0        3.917446    1.219863   -0.673305
     26          8           0        4.627959    2.179845   -0.805750
     27          8           0        3.926690    0.451880    0.471542
     28          1           0        5.009885   -1.124076    2.049115
     29          1           0        4.030158   -2.175865    3.232965
     30          1           0        1.808287   -1.554497   -2.588385
     31          1           0        0.823686   -3.579467   -1.803805
     32          1           0        2.370976   -3.365123   -0.962761
     33          1           0        0.832062   -3.085954   -0.126109
     34          1           0        0.071922    0.113884   -2.172221
     35          1           0       -0.525098   -1.497190   -2.529704
     36          1           0       -0.365537   -1.136507    0.383592
     37          1           0       -1.163643    1.848383    1.271445
     38          1           0        0.242876    1.256142    0.401458
     39          1           0       -0.441029    2.531908   -1.633518
     40          1           0       -1.843678    3.160357   -0.794574
     41          1           0        0.112424    4.757589   -0.910032
     42          1           0        1.063058    3.662463    0.073050
     43          1           0        0.097149    5.534524    1.435909
     44          1           0       -0.540746    3.992454    2.005220
     45          1           0       -1.539876    5.039602    0.986139
     46          1           0       -3.548733    2.257006    0.698764
     47          1           0       -5.870790    1.524426    1.075821
     48          1           0       -6.583822   -0.808033    0.650764
     49          1           0       -4.900337   -2.495325   -0.148240
     50          1           0        3.378071    0.334155   -2.554458
     51          1           0        2.136031    1.369527   -1.865531
 ---------------------------------------------------------------------

 SCF Done:  E(RB3LYP) =  -1188.00056975     A.U. after   16 cycles

 Excitation energies and oscillator strengths:

 Excited State   1:      Triplet-A      2.4914 eV  497.65 nm  f=0.0000  <S**2>=2.000
      91 -> 98         0.21634
      95 -> 98         0.61642
      96 -> 98        -0.11530
      97 -> 98        -0.17857
      95 <- 98         0.10119
 This state for optimization and/or second-order correction.
 Total Energy, E(TD-HF/TD-DFT) =  -1187.90901194
 Copying the excited state density for this state as the 1-particle RhoCI density.

 Excited State   2:      Triplet-A      2.6559 eV  466.82 nm  f=0.0000  <S**2>=2.000
      97 -> 98        -0.21254
      97 -> 99         0.65724

 Excited State   3:      Singlet-A      2.7776 eV  446.38 nm  f=0.0023  <S**2>=0.000
      97 -> 98         0.70646

 Excited State   4:      Triplet-A      2.8027 eV  442.38 nm  f=0.0000  <S**2>=2.000
      95 -> 98         0.14225
      97 -> 98         0.64969
      97 -> 99         0.22503

 Excited State   5:      Singlet-A      3.3979 eV  364.88 nm  f=0.0617  <S**2>=0.000
      97 -> 99         0.69865

 Excited State   6:      Singlet-A      3.7284 eV  332.54 nm  f=0.0008  <S**2>=0.000
      96 -> 98        -0.35030
      96 -> 99         0.59673

 The electronic state is 1-A.
 Alpha  occ. eigenvalues --  -19.23517 -19.17348 -19.14256 -14.37170 -14.36657
 Alpha  occ. eigenvalues --  -10.34918 -10.29550 -10.27804 -10.27666 -10.25965
 Alpha  occ. eigenvalues --  -10.24618 -10.24614 -10.24069 -10.24061 -10.24035
 Alpha  occ. eigenvalues --  -10.23788 -10.23062 -10.21249 -10.21124 -10.20821
 Alpha  occ. eigenvalues --  -10.20374 -10.20109 -10.20000 -10.19718 -10.19621
 Alpha  occ. eigenvalues --  -10.18919 -10.18684  -1.14368  -1.06301  -1.03955
 Alpha  occ. eigenvalues --   -0.97790  -0.93625  -0.87017  -0.86102  -0.85344
 Alpha  occ. eigenvalues --   -0.82118  -0.80529  -0.78252  -0.76203  -0.75515
 Alpha  occ. eigenvalues --   -0.74497  -0.71517  -0.69005  -0.67639  -0.66122
 Alpha  occ. eigenvalues --   -0.65784  -0.63829  -0.61282  -0.59788  -0.58653
 Alpha  occ. eigenvalues --   -0.57047  -0.56775  -0.54385  -0.52277  -0.51533
 Alpha  occ. eigenvalues --   -0.51210  -0.50789  -0.49776  -0.48397  -0.47756
 Alpha  occ. eigenvalues --   -0.46706  -0.46367  -0.46311  -0.45880  -0.45297
 Alpha  occ. eigenvalues --   -0.44515  -0.44167  -0.43684  -0.43300  -0.42855
 Alpha  occ. eigenvalues --   -0.42088  -0.41601  -0.41264  -0.40997  -0.40512
 Alpha  occ. eigenvalues --   -0.39643  -0.39183  -0.38751  -0.38381  -0.37867
 Alpha  occ. eigenvalues --   -0.37662  -0.37317  -0.36558  -0.36245  -0.35821
 Alpha  occ. eigenvalues --   -0.35470  -0.35181  -0.34832  -0.34473  -0.34236
 Alpha  occ. eigenvalues --   -0.31634  -0.30259  -0.30143  -0.26719  -0.26115
 Alpha  occ. eigenvalues --   -0.25321  -0.21301
 Alpha virt. eigenvalues --   -0.09398  -0.06534  -0.04031  -0.02022  -0.00842
 Alpha virt. eigenvalues --   -0.00778  -0.00237   0.00092   0.00309   0.00875
 Alpha virt. eigenvalues --    0.01378   0.01590   0.02067   0.02482   0.02751

 Mulliken charges:
               1
     1  C    0.107121
     2  C    1.040649
     3  C   -0.895794
     4  N   -0.347453
     5  C   -0.013617
     6  C   -0.566383
     7  C    0.402722
     8  C   -0.533217
     9  C   -0.058478
    10  C   -0.516625
    11  N    0.317401
    12  C   -0.365590
    13  C    0.069277
    14  C   -0.176246
    15  C   -0.555749
    16  C    0.162618
    17  C    0.184822
    18  C   -0.357086
    19  C   -0.258156
    20  C   -0.065774
    21  C   -0.227208
    22  C   -0.114364
    23  O   -0.457411
    24  C    0.008802
    25  C    0.229278
    26  O   -0.423813
    27  O   -0.250482
    28  H    0.181017
    29  H    0.169783
    30  H    0.129931
    31  H    0.169142
    32  H    0.143321
    33  H    0.177713
    34  H    0.143510
    35  H    0.171241
    36  H    0.189051
    37  H    0.141596
    38  H    0.138916
    39  H    0.127171
    40  H    0.141519
    41  H    0.141797
    42  H    0.134596
    43  H    0.149712
    44  H    0.144298
    45  H    0.145698
    46  H    0.123085
    47  H    0.128024
    48  H    0.127680
    49  H    0.150534
    50  H    0.198356
    51  H    0.193065
 Sum of Mulliken charges =  -0.00000

 Dipole moment (field-independent basis, Debye):
    X=              1.0220    Y=              2.1075    Z=             -0.8182  Tot=              2.4811
 Quadrupole moment (field-independent basis, Debye-Ang):
   XX=           -161.7293   YY=           -174.8423   ZZ=           -160.3833
   XY=            -25.8318   XZ=              0.1403   YZ=              2.1173

 Normal termination of Gaussian 16 at Mon Aug 11 11:37:40 2025.
