 Gaussian 16, Revision C.02,
 Gaussian 16:  ES64L-G16RevC.02  7-Dec-2021

 ----------------------------------------------------------
 # td=(50-50,nstates=3) b3lyp/6-31+g(d,p) geom=connectivity
 ----------------------------------------------------------

 -------------------
 Title Card Required
 -------------------
 Symbolic Z-matrix:
 Charge =  0 Multiplicity = 1

                         Standard orientation:
 ---------------------------------------------------------------------
 Center     Atomic      Atomic             Coordinates (Angstroms)
 Number     Number       Type             X           Y           Z
 ---------------------------------------------------------------------
      1          6           0        4.296121   -1.516052   -1.178536
      2          6           0        3.659712   -1.615206    0.226473
      3          6           0        3.472832   -3.110510    0.577278
      4          6           0        4.617808   -0.992053    1.268012
      5         14           0        1.944120   -0.728953    0.266955
      6          6           0        1.155994   -0.844426    1.973875
      7          6           0        0.810622   -1.465380   -1.085764
      8          6           0       -0.663810   -1.170016   -0.931146
      9          6           0       -1.217592    0.044935   -1.364420
     10          6           0       -2.579330    0.311962   -1.214991
     11          6           0       -3.445852   -0.619189   -0.623997
     12          6           0       -4.915506   -0.311650   -0.430318
     13          6           0       -5.218705    0.366364    0.923290
     14          6           0       -6.710986    0.637712    1.177544
     15          6           0       -7.342772    1.671151    0.235334
     16          6           0       -2.893716   -1.833719   -0.194286
     17          6           0       -1.532001   -2.104517   -0.346010
     18          7           0        1.975642    1.006906   -0.095247
     19          6           0        2.897652    1.831809   -0.335072
     20          6           0        2.585442    3.296712   -0.652316
     21          6           0        3.490663    4.222286    0.033556
     22          7           0        4.224565    4.931591    0.587926
     23          1           0        4.484720   -0.479806   -1.480450
     24          1           0        5.263268   -2.038250   -1.194715
     25          1           0        3.666404   -1.976851   -1.948143
     26          1           0        3.045078   -3.250041    1.576440
     27          1           0        4.445562   -3.622225    0.566551
     28          1           0        2.828380   -3.630110   -0.140743
     29          1           0        4.830815    0.063287    1.067982
     30          1           0        4.218137   -1.061692    2.285766
     31          1           0        5.580624   -1.522421    1.259804
     32          1           0        0.181667   -0.346714    1.966541
     33          1           0        1.778048   -0.359609    2.733697
     34          1           0        0.999729   -1.885264    2.277262
     35          1           0        1.173536   -1.089975   -2.051098
     36          1           0        0.969721   -2.550450   -1.100326
     37          1           0       -0.573058    0.790188   -1.822292
     38          1           0       -2.977149    1.260173   -1.570577
     39          1           0       -5.259857    0.330591   -1.249316
     40          1           0       -5.496365   -1.241361   -0.496767
     41          1           0       -4.828376   -0.272063    1.726480
     42          1           0       -4.658686    1.309967    0.985013
     43          1           0       -6.828183    0.983639    2.212851
     44          1           0       -7.266791   -0.308222    1.108962
     45          1           0       -8.386563    1.863614    0.506450
     46          1           0       -7.333336    1.336726   -0.807607
     47          1           0       -6.806086    2.626632    0.283016
     48          1           0       -3.538661   -2.585563    0.255691
     49          1           0       -1.140727   -3.063620   -0.013543
     50          1           0        3.973170    1.589443   -0.359776
     51          1           0        2.689052    3.456863   -1.734825
     52          1           0        1.547345    3.507708   -0.379479
 ---------------------------------------------------------------------

 SCF Done:  E(RB3LYP) =  -1141.19093732     A.U. after   15 cycles

 Excitation energies and oscillator strengths:

 Excited State   1:      Triplet-A      3.4044 eV  364.19 nm  f=0.0000  <S**2>=2.000
      83 -> 87         0.17564
      84 -> 87         0.27472
      85 -> 87         0.61377
 This state for optimization and/or second-order correction.
 Total Energy, E(TD-HF/TD-DFT) =  -1141.06582848
 Copying the excited state density for this state as the 1-particle RhoCI density.

 Excited State   2:      Triplet-A      3.6091 eV  343.53 nm  f=0.0000  <S**2>=2.000
      84 -> 89         0.31793
      85 -> 89        -0.15601
      86 -> 87        -0.14776
      86 -> 88        -0.26615
      86 -> 89         0.21494
      86 -> 90         0.39336
      86 -> 94        -0.14110

 Excited State   3:      Singlet-A      3.9776 eV  311.71 nm  f=0.0020  <S**2>=0.000
      83 -> 87         0.12668
      84 -> 87         0.27230
      85 -> 87         0.63228

 Excited State   4:      Triplet-A      4.1821 eV  296.47 nm  f=0.0000  <S**2>=2.000
      82 -> 87         0.15654
      84 -> 89         0.12303
      86 -> 87         0.58950
      86 -> 89         0.27415

 Excited State   5:      Singlet-A      4.3162 eV  287.25 nm  f=0.0289  <S**2>=0.000
      86 -> 87         0.70301

 Excited State   6:      Singlet-A      4.9578 eV  250.08 nm  f=0.0009  <S**2>=0.000
      84 -> 87         0.51207
      84 -> 90        -0.12278
      85 -> 87        -0.22280
      86 -> 88         0.13385
      86 -> 89         0.34342

 The electronic state is 1-A.
 Alpha  occ. eigenvalues --  -66.14956 -14.35097 -14.33675 -10.27357 -10.25133
 Alpha  occ. eigenvalues --  -10.24494 -10.20325 -10.19903 -10.19614 -10.19102
 Alpha  occ. eigenvalues --  -10.19045 -10.19030 -10.18998 -10.18924 -10.18894
 Alpha  occ. eigenvalues --  -10.18890 -10.18833 -10.18611 -10.18531 -10.18530
 Alpha  occ. eigenvalues --  -10.17858 -10.17121  -5.29121  -3.65157  -3.64956
 Alpha  occ. eigenvalues --   -3.64917  -0.92548  -0.91291  -0.86019  -0.81301
 Alpha  occ. eigenvalues --   -0.80671  -0.79299  -0.77559  -0.74429  -0.72878
 Alpha  occ. eigenvalues --   -0.70257  -0.69557  -0.69454  -0.67943  -0.63963
 Alpha  occ. eigenvalues --   -0.61418  -0.60786  -0.58141  -0.56861  -0.56479
 Alpha  occ. eigenvalues --   -0.54612  -0.51485  -0.49681  -0.48057  -0.47972
 Alpha  occ. eigenvalues --   -0.46928  -0.45856  -0.45368  -0.45139  -0.44562
 Alpha  occ. eigenvalues --   -0.44070  -0.43721  -0.42435  -0.41900  -0.41667
 Alpha  occ. eigenvalues --   -0.40705  -0.40229  -0.39672  -0.39229  -0.39039
 Alpha  occ. eigenvalues --   -0.38958  -0.38105  -0.37815  -0.37408  -0.36962
 Alpha  occ. eigenvalues --   -0.35975  -0.35721  -0.34778  -0.34486  -0.34291
 Alpha  occ. eigenvalues --   -0.34145  -0.33849  -0.33612  -0.32999  -0.32594
 Alpha  occ. eigenvalues --   -0.32574  -0.30601  -0.29478  -0.25352  -0.24815
 Alpha  occ. eigenvalues --   -0.22897
 Alpha virt. eigenvalues --   -0.04870  -0.01620  -0.01288  -0.00900  -0.00289
 Alpha virt. eigenvalues --    0.00019   0.00831   0.00998   0.01361   0.01726
 Alpha virt. eigenvalues --    0.01934   0.02109   0.02446   0.02659   0.03197

 Mulliken charges:
               1
     1  C   -0.475933
     2  C   -0.276915
     3  C   -0.432268
     4  C   -0.453578
     5  Si   1.038968
     6  C   -0.603961
     7  C   -0.460621
     8  C   -0.012014
     9  C   -0.188771
    10  C   -0.044025
    11  C    0.250461
    12  C   -0.381768
    13  C   -0.291373
    14  C   -0.203568
    15  C   -0.512781
    16  C   -0.033866
    17  C   -0.200471
    18  N   -0.593238
    19  C    0.046321
    20  C   -0.128015
    21  C    0.090782
    22  N   -0.489869
    23  H    0.137294
    24  H    0.148038
    25  H    0.150867
    26  H    0.150016
    27  H    0.148465
    28  H    0.144190
    29  H    0.138004
    30  H    0.150889
    31  H    0.147882
    32  H    0.186349
    33  H    0.163262
    34  H    0.159265
    35  H    0.160627
    36  H    0.151709
    37  H    0.112488
    38  H    0.110761
    39  H    0.134095
    40  H    0.133580
    41  H    0.139469
    42  H    0.139425
    43  H    0.136109
    44  H    0.132359
    45  H    0.143424
    46  H    0.143428
    47  H    0.143700
    48  H    0.113353
    49  H    0.106176
    50  H    0.120654
    51  H    0.201838
    52  H    0.208789
 Sum of Mulliken charges =  -0.00000

 Dipole moment (field-independent basis, Debye):
    X=             -1.3077    Y=             -3.0849    Z=             -1.4283  Tot=              3.6423
 Quadrupole moment (field-independent basis, Debye-Ang):
   XX=           -152.5181   YY=           -162.0843   ZZ=           -146.8630
   XY=            -20.3072   XZ=             -9.1924   YZ=            -11.5415

 Normal termination of Gaussian 16 at Mon Aug 11 12:01:01 2025.
