 Gaussian 16, Revision C.02,
 Gaussian 16:  ES64L-G16RevC.02  7-Dec-2021

 ----------------------------------------------------------
 # td=(50-50,nstates=3) b3lyp/6-31+g(d,p) geom=connectivity
 ----------------------------------------------------------

 -------------------
 Title Card Required
 -------------------
 Symbolic Z-matrix:
 Charge =  0 Multiplicity = 1

                         Standard orientation:
 ---------------------------------------------------------------------
 Center     Atomic      Atomic             Coordinates (Angstroms)
 Number     Number       Type             X           Y           Z
 ---------------------------------------------------------------------
      1          6           0        5.183597    1.253500   -0.356279
      2          8           0        4.136019    0.332456   -0.114585
      3          6           0        3.047374    0.902590    0.589742
      4          6           0        1.923840   -0.110432    0.681343
      5          8           0        1.274319   -0.203810   -0.580720
      6          6           0        0.523419   -1.380034   -0.815631
      7          7           0       -0.752402   -1.473769   -0.136218
      8          6           0       -0.846628   -1.937621    1.238606
      9          7           0       -1.719077   -0.702037   -0.680199
     10          6           0       -2.814168   -0.456974   -0.056638
     11          6           0       -3.872125    0.356745   -0.768838
     12          6           0       -4.307501    1.518030    0.019996
     13          7           0       -4.652277    2.422397    0.662151
     14          1           0        5.966228    0.715132   -0.895141
     15          1           0        4.840024    2.099339   -0.970825
     16          1           0        5.600999    1.646835    0.584137
     17          1           0        3.360022    1.189502    1.608503
     18          1           0        2.681086    1.805893    0.077199
     19          1           0        1.214378    0.212822    1.457629
     20          1           0        2.342915   -1.085575    0.973980
     21          1           0        0.320737   -1.377509   -1.886715
     22          1           0        1.113347   -2.264506   -0.539109
     23          1           0       -0.924265   -1.107150    1.957131
     24          1           0       -1.725377   -2.582421    1.364420
     25          1           0        0.042241   -2.524951    1.473075
     26          1           0       -3.042774   -0.803772    0.952227
     27          1           0       -3.471180    0.699360   -1.727941
     28          1           0       -4.761645   -0.253130   -0.980081
 ---------------------------------------------------------------------

 SCF Done:  E(RB3LYP) =  -628.534213120     A.U. after   13 cycles

 Excitation energies and oscillator strengths:

 Excited State   1:      Triplet-A      3.5071 eV  353.52 nm  f=0.0000  <S**2>=2.000
      50 -> 51         0.67421
 This state for optimization and/or second-order correction.
 Total Energy, E(TD-HF/TD-DFT) =  -628.405329296
 Copying the excited state density for this state as the 1-particle RhoCI density.

 Excited State   2:      Triplet-A      5.0448 eV  245.77 nm  f=0.0000  <S**2>=2.000
      47 -> 51         0.62496
      48 -> 51         0.27313

 Excited State   3:      Triplet-A      5.2747 eV  235.06 nm  f=0.0000  <S**2>=2.000
      50 -> 52         0.69724

 Excited State   4:      Singlet-A      5.3388 eV  232.23 nm  f=0.0083  <S**2>=0.000
      50 -> 52         0.70005

 Excited State   5:      Singlet-A      5.5523 eV  223.30 nm  f=0.3643  <S**2>=0.000
      50 -> 51         0.68402

 Excited State   6:      Singlet-A      5.8682 eV  211.28 nm  f=0.0141  <S**2>=0.000
      50 -> 53         0.67968
      50 -> 54         0.12045

 The electronic state is 1-A.
 Alpha  occ. eigenvalues --  -19.16685 -19.16333 -14.39902 -14.38855 -14.34296
 Alpha  occ. eigenvalues --  -10.27724 -10.24762 -10.24632 -10.24372 -10.24022
 Alpha  occ. eigenvalues --  -10.24011 -10.23718 -10.23518  -1.06132  -1.04224
 Alpha  occ. eigenvalues --   -1.02120  -0.91141  -0.86963  -0.78811  -0.77948
 Alpha  occ. eigenvalues --   -0.73850  -0.69022  -0.66334  -0.61813  -0.57982
 Alpha  occ. eigenvalues --   -0.55428  -0.52648  -0.52045  -0.51459  -0.50006
 Alpha  occ. eigenvalues --   -0.48248  -0.47489  -0.46217  -0.45686  -0.45209
 Alpha  occ. eigenvalues --   -0.43515  -0.42017  -0.41371  -0.40029  -0.38267
 Alpha  occ. eigenvalues --   -0.37436  -0.36440  -0.33616  -0.33590  -0.33182
 Alpha  occ. eigenvalues --   -0.32746  -0.29584  -0.28522  -0.26658  -0.23606
 Alpha virt. eigenvalues --   -0.01929  -0.00979   0.00654   0.01007   0.01594
 Alpha virt. eigenvalues --    0.01960   0.02554   0.02583   0.03219   0.03815
 Alpha virt. eigenvalues --    0.04137   0.04166   0.04984   0.05525   0.05761

 Mulliken charges:
               1
     1  C   -0.177073
     2  O   -0.327891
     3  C   -0.327887
     4  C   -0.033302
     5  O   -0.309574
     6  C    0.082723
     7  N    0.039986
     8  C   -0.276831
     9  N   -0.179956
    10  C   -0.066468
    11  C   -0.364095
    12  C    0.284246
    13  N   -0.514768
    14  H    0.144762
    15  H    0.129949
    16  H    0.122318
    17  H    0.118652
    18  H    0.139628
    19  H    0.126947
    20  H    0.128726
    21  H    0.152775
    22  H    0.119763
    23  H    0.154908
    24  H    0.148759
    25  H    0.153578
    26  H    0.129631
    27  H    0.206555
    28  H    0.193939
 Sum of Mulliken charges =  -0.00000

 Dipole moment (field-independent basis, Debye):
    X=              2.3363    Y=             -3.5884    Z=              0.8533  Tot=              4.3661
 Quadrupole moment (field-independent basis, Debye-Ang):
   XX=            -85.7061   YY=            -84.5488   ZZ=            -78.5132
   XY=             20.7657   XZ=              8.9133   YZ=             -5.6163

 Normal termination of Gaussian 16 at Mon Aug 11 11:23:10 2025.
