 Gaussian 16, Revision C.02,
 Gaussian 16:  ES64L-G16RevC.02  7-Dec-2021

 ----------------------------------------------------------
 # td=(50-50,nstates=3) b3lyp/6-31+g(d,p) geom=connectivity
 ----------------------------------------------------------

 -------------------
 Title Card Required
 -------------------
 Symbolic Z-matrix:
 Charge =  0 Multiplicity = 1

                         Standard orientation:
 ---------------------------------------------------------------------
 Center     Atomic      Atomic             Coordinates (Angstroms)
 Number     Number       Type             X           Y           Z
 ---------------------------------------------------------------------
      1          6           0       -0.155367    0.672681   -2.624999
      2          6           0       -0.920476    0.449958   -1.528640
      3          6           0       -2.359095    0.598057   -1.660025
      4          6           0       -3.235608    0.285552   -0.681919
      5          6           0       -4.759069    0.422339   -0.845389
      6          6           0       -5.119068    1.109789   -2.178986
      7          6           0       -5.425466   -0.977677   -0.838757
      8          6           0       -5.341074    1.287529    0.301016
      9          6           0       -2.675939   -0.262355    0.582423
     10          8           0       -3.428073   -0.766561    1.417608
     11          6           0       -1.178148   -0.203658    0.854661
     12          6           0       -0.769535   -0.482916    2.327881
     13          6           0        0.721116   -0.247509    2.658192
     14          6           0       -1.557204    0.486776    3.256247
     15          6           0       -1.081254   -1.957439    2.705290
     16          6           0       -0.363179    0.080125   -0.207770
     17          6           0        1.137032    0.113652   -0.180872
     18          6           0        1.945062   -0.961437   -0.449296
     19          7           0        1.310704   -2.284617   -0.667559
     20          8           0        0.871352   -2.513784   -1.788163
     21          8           0        1.286240   -3.045928    0.293307
     22          6           0        3.388353   -0.913344   -0.518080
     23         17           0        4.273956   -2.369137   -0.871216
     24          6           0        4.062469    0.263749   -0.331367
     25          6           0        3.259772    1.397733   -0.071392
     26          6           0        1.839232    1.356891   -0.000805
     27          7           0        1.328858    2.553099    0.247549
     28          8           0        2.394855    3.403169    0.342531
     29          7           0        3.629072    2.671216    0.140868
     30          8           0        4.699105    3.263460    0.189518
     31          1           0       -0.620214    0.961617   -3.561959
     32          1           0        0.920961    0.559212   -2.636897
     33          1           0       -2.704890    0.958624   -2.622360
     34          1           0       -6.206062    1.222230   -2.240824
     35          1           0       -4.678887    2.110270   -2.258899
     36          1           0       -4.804872    0.520617   -3.047734
     37          1           0       -6.505797   -0.868715   -0.989605
     38          1           0       -5.257505   -1.495397    0.105964
     39          1           0       -5.033930   -1.598365   -1.652758
     40          1           0       -4.889638    2.286434    0.305284
     41          1           0       -6.420312    1.409217    0.155366
     42          1           0       -5.178331    0.825800    1.275635
     43          1           0        0.848908   -0.397622    3.734917
     44          1           0        1.386231   -0.957316    2.164701
     45          1           0        1.040773    0.774957    2.441534
     46          1           0       -1.231593    0.327641    4.289778
     47          1           0       -2.632401    0.323468    3.212146
     48          1           0       -1.344568    1.530796    2.998357
     49          1           0       -2.141081   -2.186105    2.610054
     50          1           0       -0.508609   -2.648069    2.078609
     51          1           0       -0.781081   -2.125936    3.746088
     52          1           0        5.142039    0.330229   -0.385621
 ---------------------------------------------------------------------

 SCF Done:  E(RB3LYP) =  -1813.82467544     A.U. after   21 cycles

 Excitation energies and oscillator strengths:

 Excited State   1:      Triplet-A      1.2139 eV 1021.38 nm  f=0.0000  <S**2>=2.000
     111 ->114         0.63806
     113 ->114        -0.32507
     111 <-114         0.21064
     113 <-114        -0.10225
 This state for optimization and/or second-order correction.
 Total Energy, E(TD-HF/TD-DFT) =  -1813.78006566
 Copying the excited state density for this state as the 1-particle RhoCI density.

 Excited State   2:      Triplet-A      1.8667 eV  664.17 nm  f=0.0000  <S**2>=2.000
     111 ->116         0.19547
     112 ->116         0.27932
     113 ->115         0.20031
     113 ->116         0.56307
     113 <-116         0.13164

 Excited State   3:      Triplet-A      2.4042 eV  515.70 nm  f=0.0000  <S**2>=2.000
     111 ->116        -0.14156
     112 ->114         0.10940
     112 ->115         0.23580
     112 ->116         0.56482
     113 ->116        -0.23412

 Excited State   4:      Singlet-A      2.6989 eV  459.38 nm  f=0.0002  <S**2>=0.000
     111 ->114         0.19262
     112 ->114         0.22460
     113 ->114         0.63478

 Excited State   5:      Singlet-A      2.7682 eV  447.88 nm  f=0.0011  <S**2>=0.000
     111 ->116        -0.11910
     112 ->114         0.38871
     112 ->115         0.21796
     112 ->116         0.45769
     113 ->115        -0.10604
     113 ->116        -0.21652

 Excited State   6:      Singlet-A      2.8681 eV  432.28 nm  f=0.0016  <S**2>=0.000
     112 ->114         0.54174
     112 ->115        -0.13577
     112 ->116        -0.33550
     113 ->114        -0.19143
     113 ->116         0.12822

 The electronic state is 1-A.
 Alpha  occ. eigenvalues -- -101.60168 -19.31496 -19.23402 -19.23361 -19.22489
 Alpha  occ. eigenvalues --  -19.15091 -14.61632 -14.58189 -14.44531 -10.32364
 Alpha  occ. eigenvalues --  -10.31268 -10.30309 -10.29513 -10.29156 -10.28560
 Alpha  occ. eigenvalues --  -10.27361 -10.25391 -10.24251 -10.24137 -10.23007
 Alpha  occ. eigenvalues --  -10.22455 -10.22230 -10.21941 -10.21771 -10.18595
 Alpha  occ. eigenvalues --  -10.18548 -10.17694 -10.17617 -10.17465 -10.17166
 Alpha  occ. eigenvalues --   -9.51609  -7.28070  -7.27026  -7.26987  -1.27329
 Alpha  occ. eigenvalues --   -1.25422  -1.15646  -1.10247  -1.05197  -0.97358
 Alpha  occ. eigenvalues --   -0.92994  -0.92411  -0.89570  -0.87397  -0.84298
 Alpha  occ. eigenvalues --   -0.82807  -0.82344  -0.79241  -0.77771  -0.75931
 Alpha  occ. eigenvalues --   -0.70697  -0.69487  -0.69322  -0.68728  -0.68644
 Alpha  occ. eigenvalues --   -0.68003  -0.67718  -0.65985  -0.63159  -0.60914
 Alpha  occ. eigenvalues --   -0.60348  -0.59755  -0.57373  -0.56744  -0.56421
 Alpha  occ. eigenvalues --   -0.55414  -0.55114  -0.54490  -0.53308  -0.52581
 Alpha  occ. eigenvalues --   -0.51273  -0.49602  -0.48592  -0.48005  -0.47342
 Alpha  occ. eigenvalues --   -0.45934  -0.45745  -0.45521  -0.44999  -0.44676
 Alpha  occ. eigenvalues --   -0.44548  -0.44423  -0.44090  -0.43265  -0.41913
 Alpha  occ. eigenvalues --   -0.41020  -0.40506  -0.39932  -0.39530  -0.39379
 Alpha  occ. eigenvalues --   -0.38499  -0.38192  -0.38160  -0.37929  -0.36892
 Alpha  occ. eigenvalues --   -0.36417  -0.36081  -0.35740  -0.35419  -0.35260
 Alpha  occ. eigenvalues --   -0.34708  -0.34548  -0.34130  -0.33706  -0.33417
 Alpha  occ. eigenvalues --   -0.33175  -0.32961  -0.32443  -0.31491  -0.28445
 Alpha  occ. eigenvalues --   -0.26149  -0.25816  -0.25646
 Alpha virt. eigenvalues --   -0.13600  -0.11578  -0.11020  -0.05277  -0.04960
 Alpha virt. eigenvalues --   -0.03343  -0.02554  -0.01385  -0.00439  -0.00209
 Alpha virt. eigenvalues --    0.00343   0.00691   0.01203   0.02058   0.02131

 Mulliken charges:
               1
     1  C   -0.794492
     2  C    0.156535
     3  C   -0.127851
     4  C    0.952495
     5  C    0.160503
     6  C   -0.396340
     7  C   -0.541558
     8  C   -0.542568
     9  C   -0.329238
    10  O   -0.402552
    11  C    0.308430
    12  C    0.302746
    13  C   -0.426466
    14  C   -0.465711
    15  C   -0.465112
    16  C    0.231243
    17  C    0.377497
    18  C   -0.277539
    19  N   -0.457761
    20  O    0.113726
    21  O    0.086853
    22  C   -0.232142
    23  Cl   0.349021
    24  C    0.646899
    25  C   -0.716234
    26  C   -0.363543
    27  N   -0.539170
    28  O    0.488404
    29  N   -0.582675
    30  O    0.083055
    31  H    0.149837
    32  H    0.140342
    33  H    0.130182
    34  H    0.152671
    35  H    0.151798
    36  H    0.146068
    37  H    0.142020
    38  H    0.183243
    39  H    0.142760
    40  H    0.143751
    41  H    0.143005
    42  H    0.176891
    43  H    0.150672
    44  H    0.162694
    45  H    0.146365
    46  H    0.143107
    47  H    0.178855
    48  H    0.149503
    49  H    0.184864
    50  H    0.159140
    51  H    0.140466
    52  H    0.185311
 Sum of Mulliken charges =  -0.00000

 Dipole moment (field-independent basis, Debye):
    X=              1.0515    Y=              0.8723    Z=             -2.0794  Tot=              2.4880
 Quadrupole moment (field-independent basis, Debye-Ang):
   XX=           -183.7729   YY=           -208.2396   ZZ=           -180.2692
   XY=            -12.3590   XZ=              4.5970   YZ=             -4.3522

 Normal termination of Gaussian 16 at Wed Sep 24 11:50:43 2025.
