 Gaussian 16, Revision C.02,
 Gaussian 16:  ES64L-G16RevC.02  7-Dec-2021

 ----------------------------------------------------------
 # td=(50-50,nstates=3) b3lyp/6-31+g(d,p) geom=connectivity
 ----------------------------------------------------------

 -------------------
 Title Card Required
 -------------------
 Symbolic Z-matrix:
 Charge =  0 Multiplicity = 1

                         Standard orientation:
 ---------------------------------------------------------------------
 Center     Atomic      Atomic             Coordinates (Angstroms)
 Number     Number       Type             X           Y           Z
 ---------------------------------------------------------------------
      1         17           0        0.234983    3.669486    2.249540
      2          6           0        0.045701    3.021756    0.626080
      3          6           0        0.068454    3.894969   -0.463402
      4          6           0       -0.080660    3.365835   -1.745559
      5          6           0       -0.248154    1.990683   -1.930771
      6          6           0       -0.270772    1.123304   -0.832308
      7          6           0       -0.511667   -0.370710   -1.041999
      8          6           0        0.326585   -1.310056   -0.180456
      9          6           0        1.777415   -1.393238   -0.187370
     10          6           0        2.500580   -2.237508    0.689153
     11          6           0        3.893367   -2.283924    0.632531
     12          6           0        4.600713   -1.505850   -0.286757
     13          6           0        3.898570   -0.668652   -1.160258
     14          6           0        2.509304   -0.610185   -1.111531
     15          7           0       -0.481926   -2.093218    0.543887
     16          8           0       -0.179264   -3.013193    1.378354
     17          6           0       -1.860941   -1.800740    0.259023
     18          6           0       -2.968722   -2.422972    0.813034
     19          6           0       -4.217628   -1.968617    0.373411
     20          6           0       -4.318237   -0.939174   -0.573558
     21          6           0       -3.172869   -0.332876   -1.111138
     22          6           0       -1.929386   -0.784606   -0.684081
     23          6           0       -0.121614    1.649179    0.457782
     24          1           0        0.203499    4.959417   -0.307742
     25          1           0       -0.061339    4.029929   -2.604568
     26          1           0       -0.356598    1.591469   -2.935971
     27          1           0       -0.325341   -0.594958   -2.101829
     28          1           0        1.956005   -2.846638    1.397001
     29          1           0        4.428169   -2.938037    1.315207
     30          1           0        5.685266   -1.549821   -0.324439
     31          1           0        4.434697   -0.057736   -1.880734
     32          1           0        1.990299    0.051929   -1.794991
     33          1           0       -2.849092   -3.214480    1.543727
     34          1           0       -5.121455   -2.418292    0.772938
     35          1           0       -5.299722   -0.603529   -0.894572
     36          1           0       -3.261100    0.471079   -1.835924
     37          1           0       -0.130643    0.996775    1.324700
 ---------------------------------------------------------------------

 SCF Done:  E(RB3LYP) =  -1360.73631940     A.U. after   17 cycles

 Excitation energies and oscillator strengths:

 Excited State   1:      Triplet-A      1.7170 eV  722.10 nm  f=0.0000  <S**2>=2.000
      83 -> 84         0.69515
      83 <- 84         0.15821
 This state for optimization and/or second-order correction.
 Total Energy, E(TD-HF/TD-DFT) =  -1360.67322107
 Copying the excited state density for this state as the 1-particle RhoCI density.

 Excited State   2:      Triplet-A      3.3813 eV  366.67 nm  f=0.0000  <S**2>=2.000
      80 -> 84        -0.22157
      81 -> 84        -0.12691
      82 -> 84         0.63723

 Excited State   3:      Triplet-A      3.5601 eV  348.26 nm  f=0.0000  <S**2>=2.000
      77 -> 84        -0.19044
      77 -> 87        -0.15629
      78 -> 84         0.36001
      78 -> 89        -0.16282
      79 -> 84         0.10595
      79 -> 85        -0.20804
      79 -> 87        -0.16979
      83 -> 85         0.19980
      83 -> 89         0.22741

 Excited State   4:      Singlet-A      3.5637 eV  347.91 nm  f=0.4231  <S**2>=0.000
      83 -> 84         0.68678
      83 -> 85        -0.11146

 Excited State   5:      Singlet-A      3.6788 eV  337.03 nm  f=0.0037  <S**2>=0.000
      80 -> 84        -0.22239
      81 -> 84        -0.10909
      82 -> 84         0.64524

 Excited State   6:      Singlet-A      4.0310 eV  307.58 nm  f=0.0658  <S**2>=0.000
      79 -> 84        -0.12036
      83 -> 84         0.10385
      83 -> 85         0.67506

 The electronic state is 1-A.
 Alpha  occ. eigenvalues -- -101.56072 -19.14102 -14.48428 -10.26969 -10.25349
 Alpha  occ. eigenvalues --  -10.24441 -10.24241 -10.23275 -10.22510 -10.22082
 Alpha  occ. eigenvalues --  -10.21990 -10.21947 -10.21826 -10.21797 -10.21678
 Alpha  occ. eigenvalues --  -10.21530 -10.21483 -10.21450 -10.20542 -10.20299
 Alpha  occ. eigenvalues --  -10.20238 -10.19896 -10.19559  -9.47574  -7.23984
 Alpha  occ. eigenvalues --   -7.23011  -7.22978  -1.11568  -0.93448  -0.90501
 Alpha  occ. eigenvalues --   -0.87405  -0.85788  -0.85502  -0.80731  -0.78696
 Alpha  occ. eigenvalues --   -0.77278  -0.75697  -0.75317  -0.74677  -0.72150
 Alpha  occ. eigenvalues --   -0.66114  -0.63832  -0.62929  -0.61863  -0.60976
 Alpha  occ. eigenvalues --   -0.59878  -0.57869  -0.54023  -0.53135  -0.52435
 Alpha  occ. eigenvalues --   -0.50591  -0.49965  -0.49108  -0.48070  -0.47292
 Alpha  occ. eigenvalues --   -0.46372  -0.45848  -0.45506  -0.44769  -0.44593
 Alpha  occ. eigenvalues --   -0.43757  -0.42828  -0.42664  -0.41566  -0.40671
 Alpha  occ. eigenvalues --   -0.38928  -0.38466  -0.38340  -0.37737  -0.37154
 Alpha  occ. eigenvalues --   -0.36691  -0.36050  -0.35223  -0.34098  -0.32274
 Alpha  occ. eigenvalues --   -0.29238  -0.27876  -0.27586  -0.26801  -0.26274
 Alpha  occ. eigenvalues --   -0.26039  -0.25881  -0.21493
 Alpha virt. eigenvalues --   -0.07827  -0.04352  -0.03892  -0.02912  -0.01618
 Alpha virt. eigenvalues --   -0.01223  -0.00985   0.00270   0.00550   0.01169
 Alpha virt. eigenvalues --    0.01480   0.01827   0.02474   0.02573   0.03012

 Mulliken charges:
               1
     1  Cl   0.232135
     2  C    0.148317
     3  C   -0.241951
     4  C   -0.110590
     5  C    0.201686
     6  C    0.226252
     7  C   -0.015823
     8  C    0.224149
     9  C    0.168384
    10  C    0.160243
    11  C   -0.308499
    12  C   -0.082275
    13  C   -0.277553
    14  C   -0.390441
    15  N   -0.282720
    16  O    0.034370
    17  C   -0.023859
    18  C   -0.570352
    19  C    0.008374
    20  C    0.011543
    21  C   -0.525264
    22  C    0.405167
    23  C   -0.934705
    24  H    0.147137
    25  H    0.136060
    26  H    0.112416
    27  H    0.164753
    28  H    0.177895
    29  H    0.130007
    30  H    0.126452
    31  H    0.126606
    32  H    0.115368
    33  H    0.164710
    34  H    0.134369
    35  H    0.131309
    36  H    0.132265
    37  H    0.144065
 Sum of Mulliken charges =  -0.00000

 Dipole moment (field-independent basis, Debye):
    X=             -1.1256    Y=              2.1615    Z=             -3.8363  Tot=              4.5449
 Quadrupole moment (field-independent basis, Debye-Ang):
   XX=           -124.7098   YY=           -147.3670   ZZ=           -138.7374
   XY=              1.3516   XZ=              0.1498   YZ=             -6.4334

 Normal termination of Gaussian 16 at Wed Sep 24 12:19:41 2025.
