 Gaussian 16, Revision C.02,
 Gaussian 16:  ES64L-G16RevC.02  7-Dec-2021

 ----------------------------------------------------------
 # td=(50-50,nstates=3) b3lyp/6-31+g(d,p) geom=connectivity
 ----------------------------------------------------------

 -------------------
 Title Card Required
 -------------------
 Symbolic Z-matrix:
 Charge =  0 Multiplicity = 1

                         Standard orientation:
 ---------------------------------------------------------------------
 Center     Atomic      Atomic             Coordinates (Angstroms)
 Number     Number       Type             X           Y           Z
 ---------------------------------------------------------------------
      1         17           0        5.277845   -1.024866    0.220252
      2          6           0        3.786661   -0.185687   -0.190446
      3          6           0        3.837947    0.945498   -1.002283
      4          6           0        2.641482    1.597955   -1.314112
      5          6           0        1.424350    1.125820   -0.822662
      6          6           0        1.380105   -0.015485   -0.008449
      7          6           0        0.051591   -0.545010    0.515876
      8          6           0       -0.666003    0.474407    1.353649
      9          7           0       -1.931481    0.806717    1.257346
     10          8           0       -2.474552    1.754474    1.942176
     11          6           0       -2.851701    0.118814    0.355548
     12          6           0       -3.506638    0.877281   -0.615311
     13          6           0       -4.427987    0.251291   -1.454654
     14          6           0       -4.706844   -1.112091   -1.304468
     15          6           0       -4.061553   -1.851939   -0.311038
     16          6           0       -3.126486   -1.236953    0.527103
     17          6           0        2.575981   -0.669995    0.308433
     18          1           0        4.788280    1.306956   -1.378913
     19          1           0        2.664942    2.481436   -1.945161
     20          1           0        0.503498    1.646512   -1.069782
     21          1           0       -0.575920   -0.857976   -0.324363
     22          1           0        0.245749   -1.449315    1.109471
     23          1           0       -0.120443    1.049101    2.094820
     24          1           0       -3.299766    1.939116   -0.690831
     25          1           0       -4.936045    0.829846   -2.220149
     26          1           0       -5.431682   -1.592718   -1.954511
     27          1           0       -4.288358   -2.905604   -0.179819
     28          1           0       -2.632118   -1.797405    1.314012
     29          1           0        2.569848   -1.553475    0.938988
 ---------------------------------------------------------------------

 SCF Done:  E(RB3LYP) =  -1130.85463547     A.U. after   16 cycles

 Excitation energies and oscillator strengths:

 Excited State   1:      Triplet-A      2.0601 eV  601.82 nm  f=0.0000  <S**2>=2.000
      64 -> 65         0.63324
      64 -> 69        -0.31383
      64 <- 65         0.15295
      64 <- 69        -0.10257
 This state for optimization and/or second-order correction.
 Total Energy, E(TD-HF/TD-DFT) =  -1130.77892673
 Copying the excited state density for this state as the 1-particle RhoCI density.

 Excited State   2:      Triplet-A      3.4550 eV  358.86 nm  f=0.0000  <S**2>=2.000
      59 -> 69        -0.14386
      60 -> 66        -0.17079
      60 -> 68        -0.10764
      63 -> 65         0.61112

 Excited State   3:      Triplet-A      3.6029 eV  344.12 nm  f=0.0000  <S**2>=2.000
      61 -> 65        -0.16703
      61 -> 66        -0.18412
      61 -> 68         0.25712
      61 -> 69        -0.14242
      62 -> 66        -0.18029
      62 -> 67         0.47577
      64 -> 66         0.11968
      64 -> 67        -0.17357

 Excited State   4:      Singlet-A      3.9157 eV  316.64 nm  f=0.0232  <S**2>=0.000
      59 -> 65         0.12299
      63 -> 65         0.65507
      63 -> 69        -0.18393
      64 -> 65         0.10381

 Excited State   5:      Singlet-A      4.1226 eV  300.74 nm  f=0.0941  <S**2>=0.000
      64 -> 65         0.63082
      64 -> 68         0.18595
      64 -> 69         0.21386

 Excited State   6:      Singlet-A      4.4017 eV  281.67 nm  f=0.0093  <S**2>=0.000
      64 -> 66         0.66715
      64 -> 67         0.17673
      64 -> 68         0.13772

 The electronic state is 1-A.
 Alpha  occ. eigenvalues -- -101.56112 -19.13019 -14.48573 -10.26823 -10.25516
 Alpha  occ. eigenvalues --  -10.24420 -10.22860 -10.22743 -10.22319 -10.21971
 Alpha  occ. eigenvalues --  -10.21944 -10.21835 -10.21821 -10.21786 -10.21772
 Alpha  occ. eigenvalues --  -10.21722 -10.21250  -9.47624  -7.24029  -7.23060
 Alpha  occ. eigenvalues --   -7.23030  -1.10627  -0.90534  -0.89534  -0.86858
 Alpha  occ. eigenvalues --   -0.85044  -0.80085  -0.77814  -0.77414  -0.75218
 Alpha  occ. eigenvalues --   -0.72198  -0.66950  -0.63645  -0.62790  -0.60730
 Alpha  occ. eigenvalues --   -0.58851  -0.53923  -0.53251  -0.51459  -0.50291
 Alpha  occ. eigenvalues --   -0.49534  -0.48386  -0.47320  -0.46542  -0.45094
 Alpha  occ. eigenvalues --   -0.44459  -0.44130  -0.42965  -0.41846  -0.41529
 Alpha  occ. eigenvalues --   -0.40084  -0.39021  -0.38189  -0.37575  -0.37304
 Alpha  occ. eigenvalues --   -0.36940  -0.34195  -0.32324  -0.28785  -0.28012
 Alpha  occ. eigenvalues --   -0.27413  -0.26032  -0.24755  -0.22617
 Alpha virt. eigenvalues --   -0.05780  -0.03737  -0.03532  -0.03273  -0.01699
 Alpha virt. eigenvalues --   -0.00955   0.00091   0.00559   0.00892   0.01948
 Alpha virt. eigenvalues --    0.02273   0.02391   0.03387   0.04014   0.04274

 Mulliken charges:
               1
     1  Cl   0.243379
     2  C   -0.051343
     3  C   -0.341267
     4  C   -0.220182
     5  C   -0.119862
     6  C    0.159393
     7  C   -0.316226
     8  C   -0.229663
     9  N   -0.164242
    10  O   -0.158070
    11  C   -0.587690
    12  C    0.286530
    13  C   -0.232399
    14  C    0.003318
    15  C   -0.237107
    16  C    0.297019
    17  C   -0.050145
    18  H    0.145262
    19  H    0.136402
    20  H    0.130090
    21  H    0.176068
    22  H    0.153256
    23  H    0.165002
    24  H    0.145638
    25  H    0.135336
    26  H    0.131441
    27  H    0.133111
    28  H    0.130904
    29  H    0.136044
 Sum of Mulliken charges =  -0.00000

 Dipole moment (field-independent basis, Debye):
    X=             -0.5588    Y=             -2.2714    Z=             -3.2094  Tot=              3.9714
 Quadrupole moment (field-independent basis, Debye-Ang):
   XX=           -112.4955   YY=           -105.1010   ZZ=           -110.4799
   XY=             14.2592   XZ=             11.0314   YZ=            -11.8653

 Normal termination of Gaussian 16 at Wed Sep 24 12:03:16 2025.
