 Gaussian 16, Revision C.02,
 Gaussian 16:  ES64L-G16RevC.02  7-Dec-2021

 ----------------------------------------------------------
 # td=(50-50,nstates=3) b3lyp/6-31+g(d,p) geom=connectivity
 ----------------------------------------------------------

 -------------------
 Title Card Required
 -------------------
 Symbolic Z-matrix:
 Charge =  0 Multiplicity = 1

                         Standard orientation:
 ---------------------------------------------------------------------
 Center     Atomic      Atomic             Coordinates (Angstroms)
 Number     Number       Type             X           Y           Z
 ---------------------------------------------------------------------
      1          6           0       -5.186241    1.646010    0.000566
      2          8           0       -4.455978    0.417910    0.000374
      3          6           0       -3.110359    0.442529    0.000150
      4          6           0       -2.351745    1.574142    0.000282
      5          6           0       -0.903917    1.557752    0.000087
      6          6           0       -0.191451    2.744716    0.000190
      7          6           0        1.310289    2.938072    0.000351
      8          6           0       -0.936713    3.965066    0.000204
      9          7           0       -1.510352    4.981117    0.000178
     10          6           0       -0.281423    0.228171   -0.000298
     11          8           0        1.069361    0.219392   -0.000532
     12          6           0        1.761362   -1.051274   -0.000535
     13          6           0        3.236036   -0.775111   -0.000117
     14          6           0        3.969836   -0.637542   -1.182345
     15          9           0        3.305535   -0.757145   -2.358858
     16          6           0        5.335717   -0.390457   -1.214657
     17          6           0        6.013815   -0.267800    0.000567
     18          6           0        5.335398   -0.391993    1.215444
     19          6           0        3.969512   -0.639025    1.182469
     20          9           0        3.304930   -0.760080    2.358676
     21          6           0       -1.044755   -0.905941   -0.000540
     22          6           0       -2.480993   -0.877137   -0.000212
     23          6           0       -3.204306   -2.068304   -0.000282
     24          6           0       -4.625968   -2.204506   -0.000013
     25          7           0       -5.767861   -2.437416    0.000242
     26          6           0       -2.502692   -3.314725   -0.000671
     27          7           0       -1.908285   -4.317495   -0.000981
     28          1           0       -4.960158    2.233029   -0.896652
     29          1           0       -6.236214    1.355767    0.000530
     30          1           0       -4.960127    2.232800    0.897929
     31          1           0       -2.835595    2.541510    0.000595
     32          1           0        1.767961    2.476728   -0.879071
     33          1           0        1.547327    4.003125    0.001009
     34          1           0        1.767908    2.475597    0.879185
     35          1           0        1.475253   -1.613749    0.892764
     36          1           0        1.475714   -1.613479   -0.894161
     37          1           0        5.842605   -0.299058   -2.168272
     38          1           0        7.081650   -0.074912    0.000827
     39          1           0        5.842024   -0.301802    2.169313
     40          1           0       -0.572526   -1.878229   -0.001001
 ---------------------------------------------------------------------

 SCF Done:  E(RB3LYP) =  -1284.29769111     A.U. after   17 cycles

 Excitation energies and oscillator strengths:

 Excited State   1:      Triplet-A      0.9377 eV 1322.21 nm  f=0.0000  <S**2>=2.000
      94 -> 95         0.74260
      94 <- 95         0.25543
 This state for optimization and/or second-order correction.
 Total Energy, E(TD-HF/TD-DFT) =  -1284.26323104
 Copying the excited state density for this state as the 1-particle RhoCI density.

 Excited State   2:      Triplet-A      2.0509 eV  604.54 nm  f=0.0000  <S**2>=2.000
      93 -> 95         0.69642

 Excited State   3:      Singlet-A      2.6996 eV  459.26 nm  f=0.0277  <S**2>=0.000
      93 -> 95         0.67486
      94 -> 95        -0.19385

 Excited State   4:      Singlet-A      3.0052 eV  412.57 nm  f=0.8702  <S**2>=0.000
      93 -> 95         0.19313
      94 -> 95         0.68741
      94 <- 95        -0.14717

 Excited State   5:      Triplet-A      3.3296 eV  372.37 nm  f=0.0000  <S**2>=2.000
      90 -> 95         0.58594
      94 -> 97        -0.36473

 Excited State   6:      Singlet-A      3.5315 eV  351.08 nm  f=0.0000  <S**2>=0.000
      92 -> 95         0.70693

 The electronic state is 1-A.
 Alpha  occ. eigenvalues --  -24.75889 -24.75889 -19.23659 -19.22383 -14.36643
 Alpha  occ. eigenvalues --  -14.36101 -14.34976 -10.32185 -10.32184 -10.31071
 Alpha  occ. eigenvalues --  -10.30124 -10.29458 -10.28207 -10.27686 -10.27522
 Alpha  occ. eigenvalues --  -10.26707 -10.26628 -10.25619 -10.25483 -10.25142
 Alpha  occ. eigenvalues --  -10.24720 -10.24673 -10.23685 -10.23683 -10.23374
 Alpha  occ. eigenvalues --  -10.23193 -10.22094  -1.26492  -1.26440  -1.12158
 Alpha  occ. eigenvalues --   -1.11191  -0.93680  -0.93451  -0.91521  -0.91396
 Alpha  occ. eigenvalues --   -0.90529  -0.86838  -0.83457  -0.82002  -0.79576
 Alpha  occ. eigenvalues --   -0.79295  -0.76697  -0.75486  -0.72343  -0.69666
 Alpha  occ. eigenvalues --   -0.67405  -0.66656  -0.65158  -0.63360  -0.60225
 Alpha  occ. eigenvalues --   -0.59438  -0.58470  -0.57055  -0.56942  -0.54598
 Alpha  occ. eigenvalues --   -0.53994  -0.52682  -0.52251  -0.51012  -0.50752
 Alpha  occ. eigenvalues --   -0.50094  -0.50045  -0.49832  -0.48641  -0.47690
 Alpha  occ. eigenvalues --   -0.47426  -0.46052  -0.45971  -0.44249  -0.44011
 Alpha  occ. eigenvalues --   -0.43136  -0.43068  -0.41755  -0.41633  -0.40728
 Alpha  occ. eigenvalues --   -0.40274  -0.39397  -0.39000  -0.38813  -0.38785
 Alpha  occ. eigenvalues --   -0.38480  -0.38243  -0.37518  -0.37316  -0.35636
 Alpha  occ. eigenvalues --   -0.35362  -0.35338  -0.33990  -0.33239  -0.32440
 Alpha  occ. eigenvalues --   -0.29910  -0.28656  -0.26460  -0.23960
 Alpha virt. eigenvalues --   -0.14110  -0.06370  -0.04725  -0.04425  -0.02093
 Alpha virt. eigenvalues --   -0.01943  -0.01402  -0.01075  -0.00506  -0.00053
 Alpha virt. eigenvalues --    0.00793   0.00926   0.01008   0.02228   0.02354

 Mulliken charges:
               1
     1  C   -0.126785
     2  O   -0.334985
     3  C   -0.646317
     4  C   -0.662503
     5  C    0.570535
     6  C    1.461040
     7  C   -0.525491
     8  C   -0.373671
     9  N   -0.494602
    10  C   -0.101550
    11  O   -0.318090
    12  C    0.773927
    13  C    0.134858
    14  C   -0.205534
    15  F   -0.332093
    16  C    0.057892
    17  C   -0.180704
    18  C    0.058010
    19  C   -0.206490
    20  F   -0.332112
    21  C   -0.418079
    22  C    0.335577
    23  C    1.341832
    24  C   -0.040847
    25  N   -0.523707
    26  C   -0.521740
    27  N   -0.485204
    28  H    0.156005
    29  H    0.169694
    30  H    0.156005
    31  H    0.148101
    32  H    0.185385
    33  H    0.164682
    34  H    0.185368
    35  H    0.162584
    36  H    0.162580
    37  H    0.153150
    38  H    0.148470
    39  H    0.153150
    40  H    0.151660
 Sum of Mulliken charges =  -0.00000

 Dipole moment (field-independent basis, Debye):
    X=              7.9160    Y=              3.5251    Z=              0.0012  Tot=              8.6654
 Quadrupole moment (field-independent basis, Debye-Ang):
   XX=           -143.6869   YY=           -197.8189   ZZ=           -156.7820
   XY=            -18.4751   XZ=              0.0028   YZ=             -0.0002

 Normal termination of Gaussian 16 at Mon Aug 11 12:05:17 2025.
