 Gaussian 16, Revision C.02,
 Gaussian 16:  ES64L-G16RevC.02  7-Dec-2021

 ----------------------------------------------------------
 # td=(50-50,nstates=3) b3lyp/6-31+g(d,p) geom=connectivity
 ----------------------------------------------------------

 -------------------
 Title Card Required
 -------------------
 Symbolic Z-matrix:
 Charge =  0 Multiplicity = 1

                         Standard orientation:
 ---------------------------------------------------------------------
 Center     Atomic      Atomic             Coordinates (Angstroms)
 Number     Number       Type             X           Y           Z
 ---------------------------------------------------------------------
      1          6           0       -5.106439   -0.706331    0.641472
      2          7           0       -4.260730    0.252468   -0.053128
      3          6           0       -4.811350    1.570060   -0.334099
      4          6           0       -2.884766    0.075975   -0.049636
      5          6           0       -2.009065    1.075377   -0.538778
      6          6           0       -0.632705    0.877510   -0.560828
      7          6           0       -0.043197   -0.310967   -0.097770
      8          6           0        1.424801   -0.512386   -0.123116
      9          6           0        1.984869   -1.772951   -0.408167
     10          6           0        3.366855   -1.966423   -0.428207
     11          6           0        4.234843   -0.905925   -0.174383
     12          6           0        3.694300    0.360230    0.107809
     13          6           0        4.568227    1.466960    0.380814
     14          7           0        5.277332    2.363820    0.599786
     15          6           0        2.303974    0.550917    0.137849
     16          6           0       -0.912482   -1.296702    0.399048
     17          6           0       -2.291168   -1.115747    0.432433
     18          1           0       -6.151664   -0.430166    0.495443
     19          1           0       -4.973053   -1.714288    0.233790
     20          1           0       -4.906838   -0.744354    1.724352
     21          1           0       -5.900485    1.512207   -0.313717
     22          1           0       -4.491387    2.328840    0.397495
     23          1           0       -4.519572    1.913700   -1.332577
     24          1           0       -2.400178    2.011305   -0.917481
     25          1           0       -0.005919    1.663888   -0.972035
     26          1           0        1.327831   -2.605600   -0.639786
     27          1           0        3.769837   -2.948479   -0.656789
     28          1           0        5.310281   -1.044895   -0.192875
     29          1           0        1.912539    1.530722    0.389297
     30          1           0       -0.504011   -2.218940    0.802882
     31          1           0       -2.903782   -1.905540    0.848748
 ---------------------------------------------------------------------

 SCF Done:  E(RB3LYP) =  -689.561415866     A.U. after   16 cycles

 Excitation energies and oscillator strengths:

 Excited State   1:      Triplet-A      2.8735 eV  431.48 nm  f=0.0000  <S**2>=2.000
      56 -> 61        -0.12308
      57 -> 60        -0.23443
      59 -> 60         0.49757
      59 -> 61        -0.37477
      59 -> 65        -0.11552
 This state for optimization and/or second-order correction.
 Total Energy, E(TD-HF/TD-DFT) =  -689.455818039
 Copying the excited state density for this state as the 1-particle RhoCI density.

 Excited State   2:      Triplet-A      3.3074 eV  374.87 nm  f=0.0000  <S**2>=2.000
      57 -> 60        -0.12965
      59 -> 60         0.41306
      59 -> 61         0.51214
      59 -> 65         0.10252

 Excited State   3:      Singlet-A      3.4739 eV  356.90 nm  f=0.0682  <S**2>=0.000
      59 -> 60         0.69153
      59 -> 61         0.12408

 Excited State   4:      Triplet-A      3.5588 eV  348.39 nm  f=0.0000  <S**2>=2.000
      56 -> 60         0.27066
      56 -> 61         0.24134
      57 -> 60         0.40106
      59 -> 60         0.14683
      59 -> 62        -0.33336
      59 -> 65        -0.14929

 Excited State   5:      Singlet-A      3.9661 eV  312.61 nm  f=0.4426  <S**2>=0.000
      59 -> 60        -0.12564
      59 -> 61         0.68701

 Excited State   6:      Singlet-A      4.3046 eV  288.03 nm  f=0.0332  <S**2>=0.000
      58 -> 60         0.10603
      58 -> 61        -0.14871
      59 -> 62         0.67095

 The electronic state is 1-A.
 Alpha  occ. eigenvalues --  -14.37231 -14.34184 -10.24384 -10.24297 -10.23366
 Alpha  occ. eigenvalues --  -10.23223 -10.23191 -10.22279 -10.21877 -10.21779
 Alpha  occ. eigenvalues --  -10.21465 -10.21320 -10.20351 -10.20286 -10.20249
 Alpha  occ. eigenvalues --  -10.19743 -10.19714  -0.96322  -0.91155  -0.88427
 Alpha  occ. eigenvalues --   -0.85664  -0.79669  -0.77997  -0.76180  -0.74443
 Alpha  occ. eigenvalues --   -0.73512  -0.67852  -0.65681  -0.62900  -0.61221
 Alpha  occ. eigenvalues --   -0.58961  -0.55968  -0.53373  -0.50784  -0.49952
 Alpha  occ. eigenvalues --   -0.47942  -0.47731  -0.47607  -0.46037  -0.44951
 Alpha  occ. eigenvalues --   -0.43472  -0.43231  -0.42096  -0.41569  -0.40558
 Alpha  occ. eigenvalues --   -0.39661  -0.39572  -0.38332  -0.37791  -0.36708
 Alpha  occ. eigenvalues --   -0.36064  -0.35126  -0.34402  -0.33390  -0.30854
 Alpha  occ. eigenvalues --   -0.27149  -0.26558  -0.26305  -0.20316
 Alpha virt. eigenvalues --   -0.05785  -0.04170  -0.02034  -0.01060   0.00067
 Alpha virt. eigenvalues --    0.00695   0.00931   0.01580   0.02151   0.02711
 Alpha virt. eigenvalues --    0.03089   0.03241   0.03613   0.03921   0.04825

 Mulliken charges:
               1
     1  C   -0.298665
     2  N   -0.097993
     3  C   -0.295882
     4  C    0.033267
     5  C   -0.057066
     6  C   -0.513349
     7  C    0.660638
     8  C    0.232965
     9  C   -0.045563
    10  C   -0.228562
    11  C   -0.206414
    12  C    0.203941
    13  C   -0.190143
    14  N   -0.539301
    15  C    0.081620
    16  C   -0.621500
    17  C    0.014262
    18  H    0.134323
    19  H    0.148944
    20  H    0.151185
    21  H    0.133831
    22  H    0.152013
    23  H    0.149422
    24  H    0.110786
    25  H    0.118373
    26  H    0.125932
    27  H    0.133692
    28  H    0.145995
    29  H    0.138304
    30  H    0.115192
    31  H    0.109756
 Sum of Mulliken charges =  -0.00000

 Dipole moment (field-independent basis, Debye):
    X=             -6.4722    Y=             -3.0891    Z=             -0.5988  Tot=              7.1966
 Quadrupole moment (field-independent basis, Debye-Ang):
   XX=           -102.5156   YY=           -100.6506   ZZ=           -105.6864
   XY=            -21.9721   XZ=             -6.6937   YZ=             -3.8754

 Normal termination of Gaussian 16 at Mon Aug 11 11:51:19 2025.
