 Gaussian 16, Revision C.02,
 Gaussian 16:  ES64L-G16RevC.02  7-Dec-2021

 ----------------------------------------------------------
 # td=(50-50,nstates=3) b3lyp/6-31+g(d,p) geom=connectivity
 ----------------------------------------------------------

 -------------------
 Title Card Required
 -------------------
 Symbolic Z-matrix:
 Charge =  0 Multiplicity = 2

                         Standard orientation:
 ---------------------------------------------------------------------
 Center     Atomic      Atomic             Coordinates (Angstroms)
 Number     Number       Type             X           Y           Z
 ---------------------------------------------------------------------
      1          6           0        7.918668   -1.400011   -0.535491
      2          6           0        6.627514   -1.833279    0.167870
      3          6           0        5.447378   -0.889747   -0.102393
      4          6           0        4.162390   -1.334084    0.605365
      5          6           0        2.931982   -0.466142    0.406254
      6          6           0        2.921778    0.693598   -0.382051
      7          6           0        1.769642    1.462935   -0.537045
      8          6           0        0.563197    1.094016    0.096411
      9          6           0       -0.618223    1.920480   -0.055378
     10          6           0       -0.609422    3.349531   -0.263737
     11          8           0        0.267872    4.130461   -0.557961
     12          8           0       -1.908705    3.820093    0.009176
     13          7           0       -2.772105    2.720033    0.282390
     14          7           0       -1.906316    1.555422    0.272196
     15          6           0       -2.589331    0.333098    0.113886
     16          6           0       -2.143277   -0.640804   -0.794886
     17          6           0       -2.849598   -1.833623   -0.936046
     18          6           0       -4.010069   -2.044710   -0.188919
     19         17           0       -4.900513   -3.545118   -0.376473
     20          6           0       -4.472370   -1.075296    0.704160
     21          6           0       -3.758992    0.110731    0.861038
     22          6           0        0.571470   -0.071057    0.899743
     23          6           0        1.729954   -0.822822    1.045008
     24          1           0        8.740329   -2.092196   -0.322686
     25          1           0        7.785384   -1.366116   -1.623276
     26          1           0        8.231863   -0.401300   -0.209081
     27          1           0        6.803241   -1.891822    1.250940
     28          1           0        6.359637   -2.849504   -0.153126
     29          1           0        5.274753   -0.833683   -1.186020
     30          1           0        5.718142    0.124434    0.221643
     31          1           0        4.359985   -1.407589    1.684736
     32          1           0        3.918083   -2.357788    0.285885
     33          1           0        3.825351    1.014516   -0.889318
     34          1           0        1.799028    2.360638   -1.142971
     35          1           0       -3.343025    2.643315   -0.571687
     36          1           0       -1.251613   -0.467915   -1.385607
     37          1           0       -2.507091   -2.589161   -1.634445
     38          1           0       -5.373423   -1.251178    1.281106
     39          1           0       -4.095833    0.861497    1.567511
     40          1           0       -0.323645   -0.372318    1.432554
     41          1           0        1.707004   -1.706327    1.679323
 ---------------------------------------------------------------------

 SCF Done:  E(UB3LYP) =  -1416.86769081     A.U. after   22 cycles

 Excitation energies and oscillator strengths:

 Excited State   1:  2.135-A      2.5733 eV  481.81 nm  f=0.0715  <S**2>=0.889
     87A -> 89A       -0.26468
     87A -> 90A       -0.22985
     86B -> 87B        0.90490
 This state for optimization and/or second-order correction.
 Total Energy, E(TD-HF/TD-DFT) =  -1416.77312437
 Copying the excited state density for this state as the 1-particle RhoCI density.

 Excited State   2:  2.088-A      2.6747 eV  463.55 nm  f=0.0114  <S**2>=0.840
     87A -> 88A        0.94492
     87A -> 89A       -0.23793

 Excited State   3:  2.105-A      2.8090 eV  441.37 nm  f=0.1007  <S**2>=0.858
     86A -> 89A       -0.12021
     87A -> 88A        0.28030
     87A -> 89A        0.87137
     84B -> 87B       -0.21321
     86B -> 87B        0.23328
     86B -> 89B       -0.11582

 The electronic state is 2-A.
 Alpha  occ. eigenvalues -- -101.57076 -19.24096 -19.15274 -14.46579 -14.45053
 Alpha  occ. eigenvalues --  -10.32913 -10.27867 -10.27392 -10.26399 -10.23318
 Alpha  occ. eigenvalues --  -10.23314 -10.23257 -10.23253 -10.22371 -10.21259
 Alpha  occ. eigenvalues --  -10.20789 -10.20271 -10.20208 -10.19951 -10.19908
 Alpha  occ. eigenvalues --  -10.19200 -10.19123 -10.18215  -9.48579  -7.24988
 Alpha  occ. eigenvalues --   -7.24020  -7.23981  -1.16505  -1.05961  -1.01086
 Alpha  occ. eigenvalues --   -0.91544  -0.88087  -0.86531  -0.85387  -0.81399
 Alpha  occ. eigenvalues --   -0.79159  -0.78976  -0.77214  -0.75870  -0.72896
 Alpha  occ. eigenvalues --   -0.69905  -0.66557  -0.65764  -0.63372  -0.62429
 Alpha  occ. eigenvalues --   -0.61489  -0.59843  -0.58628  -0.57890  -0.55664
 Alpha  occ. eigenvalues --   -0.53190  -0.51152  -0.50047  -0.48773  -0.48300
 Alpha  occ. eigenvalues --   -0.47822  -0.47220  -0.46522  -0.46031  -0.45123
 Alpha  occ. eigenvalues --   -0.44264  -0.43882  -0.43212  -0.42971  -0.42359
 Alpha  occ. eigenvalues --   -0.41898  -0.41144  -0.40732  -0.39485  -0.39263
 Alpha  occ. eigenvalues --   -0.38898  -0.37519  -0.37109  -0.36121  -0.35653
 Alpha  occ. eigenvalues --   -0.34576  -0.33730  -0.33493  -0.33275  -0.33252
 Alpha  occ. eigenvalues --   -0.30477  -0.29637  -0.29336  -0.27822  -0.26648
 Alpha  occ. eigenvalues --   -0.25025  -0.18005
 Alpha virt. eigenvalues --   -0.05177  -0.04676  -0.02815  -0.01973  -0.01210
 Alpha virt. eigenvalues --   -0.00094   0.00416   0.00803   0.01303   0.01363
 Alpha virt. eigenvalues --    0.01806   0.02611   0.02790   0.03175   0.03517

  Beta  occ. eigenvalues -- -101.57072 -19.23966 -19.15014 -14.46506 -14.44530
  Beta  occ. eigenvalues --  -10.32907 -10.27780 -10.27431 -10.25805 -10.23328
  Beta  occ. eigenvalues --  -10.23316 -10.23223 -10.23197 -10.22488 -10.21096
  Beta  occ. eigenvalues --  -10.20653 -10.20272 -10.20120 -10.19976 -10.19960
  Beta  occ. eigenvalues --  -10.19200 -10.19123 -10.18215  -9.48576  -7.24990
  Beta  occ. eigenvalues --   -7.24004  -7.23978  -1.16196  -1.05482  -1.00330
  Beta  occ. eigenvalues --   -0.91445  -0.87766  -0.86444  -0.84927  -0.81311
  Beta  occ. eigenvalues --   -0.78950  -0.78827  -0.77059  -0.75733  -0.72790
  Beta  occ. eigenvalues --   -0.69325  -0.66408  -0.65673  -0.63145  -0.62166
  Beta  occ. eigenvalues --   -0.61315  -0.59725  -0.58524  -0.57656  -0.55293
  Beta  occ. eigenvalues --   -0.52958  -0.51007  -0.49900  -0.48263  -0.48198
  Beta  occ. eigenvalues --   -0.47709  -0.46963  -0.46416  -0.45895  -0.44743
  Beta  occ. eigenvalues --   -0.44001  -0.43597  -0.43108  -0.42788  -0.42231
  Beta  occ. eigenvalues --   -0.41697  -0.40950  -0.39795  -0.39146  -0.39034
  Beta  occ. eigenvalues --   -0.38470  -0.37219  -0.36814  -0.35870  -0.35594
  Beta  occ. eigenvalues --   -0.33860  -0.33677  -0.33428  -0.33241  -0.33234
  Beta  occ. eigenvalues --   -0.29632  -0.29301  -0.28381  -0.27383  -0.26253
  Beta  occ. eigenvalues --   -0.23991
  Beta virt. eigenvalues --   -0.11122  -0.05030  -0.04094  -0.02163  -0.01519
  Beta virt. eigenvalues --   -0.01101  -0.00009   0.00474   0.00819   0.01313
  Beta virt. eigenvalues --    0.01383   0.01831   0.02653   0.02940   0.03236

 Mulliken charges and spin densities:
               1          2
     1  C   -0.712138  -0.000031
     2  C   -0.213699  -0.000044
     3  C   -0.259161   0.002933
     4  C   -0.581604  -0.011393
     5  C    0.600322   0.132366
     6  C   -0.991042  -0.061839
     7  C   -0.305262   0.100450
     8  C   -0.260951  -0.144163
     9  C    0.430552   0.466983
    10  C    0.329854   0.028943
    11  O   -0.507381   0.095288
    12  O   -0.053589   0.029621
    13  N   -0.560154   0.050361
    14  N    0.455053   0.169706
    15  C   -1.647000  -0.064382
    16  C    0.296684   0.098442
    17  C   -0.333847  -0.050197
    18  C    0.153090   0.064058
    19  Cl   0.252115   0.004850
    20  C   -0.279813  -0.025347
    21  C    0.607892   0.027479
    22  C    0.520950   0.123427
    23  C    0.263753  -0.053932
    24  H    0.145546  -0.000002
    25  H    0.146253   0.000011
    26  H    0.147285   0.000013
    27  H    0.138985  -0.000002
    28  H    0.138006  -0.000002
    29  H    0.144456   0.000050
    30  H    0.146920   0.000088
    31  H    0.159997   0.005033
    32  H    0.158723   0.005218
    33  H    0.126422   0.002379
    34  H    0.160036  -0.005430
    35  H    0.329947   0.015725
    36  H    0.144867  -0.003780
    37  H    0.152166   0.001659
    38  H    0.152835   0.001065
    39  H    0.158075  -0.002449
    40  H    0.123532  -0.005705
    41  H    0.121326   0.002551
 Sum of Mulliken charges =  -0.00000   1.00000

 Dipole moment (field-independent basis, Debye):
    X=             -0.4089    Y=             -4.1385    Z=             -0.1737  Tot=              4.1623
 Quadrupole moment (field-independent basis, Debye-Ang):
   XX=           -130.1775   YY=           -169.8268   ZZ=           -141.6148
   XY=             -9.5363   XZ=             -0.5839   YZ=             -1.2573

 Normal termination of Gaussian 16 at Wed Sep 24 12:37:18 2025.
