 Gaussian 16, Revision C.02,
 Gaussian 16:  ES64L-G16RevC.02  7-Dec-2021

 ----------------------------------------------------------
 # td=(50-50,nstates=3) b3lyp/6-31+g(d,p) geom=connectivity
 ----------------------------------------------------------

 -------------------
 Title Card Required
 -------------------
 Symbolic Z-matrix:
 Charge =  0 Multiplicity = 1

                         Standard orientation:
 ---------------------------------------------------------------------
 Center     Atomic      Atomic             Coordinates (Angstroms)
 Number     Number       Type             X           Y           Z
 ---------------------------------------------------------------------
      1          6           0        5.663498    0.590188    0.413308
      2          8           0        4.648401   -0.408952    0.294416
      3          6           0        3.365985   -0.039721    0.125090
      4          6           0        2.928056    1.248260    0.052901
      5          6           0        1.537153    1.605259   -0.136077
      6          6           0        1.170641    2.936148   -0.239883
      7          6           0       -0.210829    3.516165   -0.457044
      8          6           0        2.202981    3.919807   -0.135532
      9          7           0        3.017194    4.751606   -0.054931
     10          6           0        0.595523    0.481051   -0.215254
     11          8           0       -0.709125    0.810136   -0.354996
     12          6           0       -1.684256   -0.242317   -0.481592
     13          6           0       -3.076665    0.395818   -0.648879
     14          6           0       -3.480485    1.155602    0.579689
     15          6           0       -4.625092    0.915884    1.241229
     16          6           0       -5.568585   -0.126555    0.812479
     17          8           0       -6.602026   -0.376210    1.433606
     18          6           0       -5.223599   -0.901436   -0.420173
     19          7           0       -6.190214   -1.800594   -0.798822
     20          6           0       -4.058715   -0.657982   -1.072450
     21          6           0        1.038958   -0.810308   -0.149548
     22          6           0        2.424882   -1.152567    0.013074
     23          6           0        2.813367   -2.489617    0.058514
     24          6           0        4.142224   -2.987633    0.219776
     25          7           0        5.178220   -3.506411    0.344389
     26          6           0        1.821752   -3.512751   -0.068777
     27          7           0        0.995076   -4.327315   -0.177300
     28          1           0        5.482449    1.225796    1.287248
     29          1           0        6.594789    0.039543    0.539995
     30          1           0        5.712095    1.204521   -0.492652
     31          1           0        3.640212    2.058730    0.128956
     32          1           0       -0.689621    3.085107   -1.339266
     33          1           0       -0.861086    3.311594    0.398928
     34          1           0       -0.144172    4.597616   -0.585367
     35          1           0       -1.440464   -0.847920   -1.362134
     36          1           0       -1.660822   -0.880214    0.409262
     37          1           0       -2.973994    1.131582   -1.466441
     38          1           0       -2.796974    1.924309    0.929945
     39          1           0       -4.904908    1.471421    2.131332
     40          1           0       -5.945097   -2.557196   -1.418259
     41          1           0       -6.896308   -1.993285   -0.099921
     42          1           0       -3.812679   -1.223635   -1.969588
     43          1           0        0.335902   -1.628541   -0.214707
 ---------------------------------------------------------------------

 SCF Done:  E(RB3LYP) =  -1216.38184234     A.U. after   17 cycles

 Excitation energies and oscillator strengths:

 Excited State   1:      Triplet-A      0.9271 eV 1337.29 nm  f=0.0000  <S**2>=2.000
      93 -> 95         0.74293
      93 <- 95         0.25862
 This state for optimization and/or second-order correction.
 Total Energy, E(TD-HF/TD-DFT) =  -1216.34777087
 Copying the excited state density for this state as the 1-particle RhoCI density.

 Excited State   2:      Triplet-A      2.0402 eV  607.71 nm  f=0.0000  <S**2>=2.000
      92 -> 95         0.65837
      94 -> 95         0.22859

 Excited State   3:      Singlet-A      2.1170 eV  585.66 nm  f=0.0003  <S**2>=0.000
      94 -> 95         0.70638

 Excited State   4:      Triplet-A      2.1241 eV  583.71 nm  f=0.0000  <S**2>=2.000
      92 -> 95        -0.22596
      94 -> 95         0.66793

 Excited State   5:      Singlet-A      2.6886 eV  461.15 nm  f=0.0359  <S**2>=0.000
      92 -> 95         0.66767
      93 -> 95         0.21666

 Excited State   6:      Singlet-A      3.0046 eV  412.64 nm  f=0.8360  <S**2>=0.000
      92 -> 95        -0.21588
      93 -> 95         0.67970
      93 <- 95        -0.14593

 The electronic state is 1-A.
 Alpha  occ. eigenvalues --  -19.24217 -19.22870 -19.16309 -14.37146 -14.36645
 Alpha  occ. eigenvalues --  -14.36639 -14.35490 -10.31672 -10.30644 -10.29833
 Alpha  occ. eigenvalues --  -10.29317 -10.28796 -10.28255 -10.28043 -10.27238
 Alpha  occ. eigenvalues --  -10.27126 -10.26114 -10.26053 -10.26006 -10.25208
 Alpha  occ. eigenvalues --  -10.24994 -10.24207 -10.23942 -10.23699 -10.22963
 Alpha  occ. eigenvalues --  -10.22600 -10.21877  -1.12757  -1.11683  -1.06017
 Alpha  occ. eigenvalues --   -0.94207  -0.94029  -0.93972  -0.92007  -0.91292
 Alpha  occ. eigenvalues --   -0.88012  -0.87196  -0.82742  -0.81344  -0.79140
 Alpha  occ. eigenvalues --   -0.77292  -0.76885  -0.73862  -0.71784  -0.69648
 Alpha  occ. eigenvalues --   -0.67041  -0.64453  -0.63854  -0.62748  -0.60304
 Alpha  occ. eigenvalues --   -0.59025  -0.57564  -0.55569  -0.55152  -0.54596
 Alpha  occ. eigenvalues --   -0.52893  -0.52431  -0.50816  -0.50673  -0.50119
 Alpha  occ. eigenvalues --   -0.49131  -0.47803  -0.47446  -0.47265  -0.46308
 Alpha  occ. eigenvalues --   -0.46054  -0.45140  -0.44384  -0.43760  -0.43527
 Alpha  occ. eigenvalues --   -0.42691  -0.42231  -0.41482  -0.40430  -0.39967
 Alpha  occ. eigenvalues --   -0.39372  -0.39274  -0.39058  -0.38746  -0.38269
 Alpha  occ. eigenvalues --   -0.37899  -0.37715  -0.36148  -0.35872  -0.35854
 Alpha  occ. eigenvalues --   -0.35794  -0.34469  -0.33731  -0.32980  -0.30156
 Alpha  occ. eigenvalues --   -0.27968  -0.27023  -0.24524  -0.23901
 Alpha virt. eigenvalues --   -0.14688  -0.09132  -0.05278  -0.02969  -0.02540
 Alpha virt. eigenvalues --   -0.02412  -0.01911  -0.01245  -0.00750   0.00024
 Alpha virt. eigenvalues --    0.00117   0.00417   0.01099   0.01482   0.01933

 Mulliken charges:
               1
     1  C   -0.128419
     2  O   -0.335185
     3  C   -0.372409
     4  C   -0.806044
     5  C    0.405755
     6  C    1.463458
     7  C   -0.513565
     8  C   -0.366594
     9  N   -0.489069
    10  C    0.288181
    11  O   -0.321296
    12  C   -0.468800
    13  C    0.318245
    14  C    0.121772
    15  C    0.077121
    16  C   -0.101895
    17  O   -0.504756
    18  C    0.719690
    19  N   -0.632966
    20  C   -0.727972
    21  C   -0.311347
    22  C   -0.057298
    23  C    1.566978
    24  C   -0.135111
    25  N   -0.517141
    26  C   -0.510334
    27  N   -0.483068
    28  H    0.156485
    29  H    0.170648
    30  H    0.156528
    31  H    0.148720
    32  H    0.181350
    33  H    0.173217
    34  H    0.168672
    35  H    0.153376
    36  H    0.167714
    37  H    0.179384
    38  H    0.135626
    39  H    0.146213
    40  H    0.293430
    41  H    0.323050
    42  H    0.117063
    43  H    0.150594
 Sum of Mulliken charges =  -0.00000

 Dipole moment (field-independent basis, Debye):
    X=             -2.0908    Y=              3.9034    Z=             -2.2065  Tot=              4.9474
 Quadrupole moment (field-independent basis, Debye-Ang):
   XX=           -188.1860   YY=           -195.9472   ZZ=           -156.9547
   XY=             15.7637   XZ=             11.8324   YZ=              4.6943

 Normal termination of Gaussian 16 at Mon Aug 11 11:59:00 2025.
