 Gaussian 16, Revision C.02,
 Gaussian 16:  ES64L-G16RevC.02  7-Dec-2021

 ----------------------------------------------------------
 # td=(50-50,nstates=3) b3lyp/6-31+g(d,p) geom=connectivity
 ----------------------------------------------------------

 -------------------
 Title Card Required
 -------------------
 Symbolic Z-matrix:
 Charge =  0 Multiplicity = 1

                         Standard orientation:
 ---------------------------------------------------------------------
 Center     Atomic      Atomic             Coordinates (Angstroms)
 Number     Number       Type             X           Y           Z
 ---------------------------------------------------------------------
      1          6           0        2.227082   -2.122891   -1.094067
      2          6           0        2.519079   -0.943139   -0.510742
      3          6           0        3.898836   -0.626398   -0.229408
      4          7           0        5.014682   -0.395130    0.001806
      5          6           0        1.524235    0.060471   -0.102759
      6          6           0        0.314632   -0.040529    0.489045
      7          6           0       -0.398834   -1.292266    0.941402
      8          6           0       -1.005743   -1.119425    2.348988
      9          6           0       -1.422840   -1.894112   -0.066098
     10          6           0       -2.591124   -1.057076   -0.628834
     11          6           0       -2.318271    0.031824   -1.634246
     12          6           0       -3.080404    1.094062   -1.296858
     13          6           0       -3.774373    0.721243   -0.057347
     14          7           0       -3.495572   -0.469966    0.365480
     15          6           0       -0.134485    1.369520    0.787908
     16          6           0        0.986495    2.229685    0.231339
     17          8           0        1.097042    3.424408    0.187205
     18          8           0        1.952905    1.381586   -0.281880
     19          1           0        1.210765   -2.378588   -1.365514
     20          1           0        3.007734   -2.840247   -1.320006
     21          1           0        0.373882   -2.069675    1.022688
     22          1           0       -1.406038   -2.074940    2.701816
     23          1           0       -0.242718   -0.791680    3.063030
     24          1           0       -1.830871   -0.403746    2.354005
     25          1           0       -0.878379   -2.275337   -0.938434
     26          1           0       -1.863441   -2.768817    0.426195
     27          1           0       -3.217332   -1.794689   -1.163938
     28          1           0       -1.677792   -0.072717   -2.502474
     29          1           0       -3.181095    2.036685   -1.821787
     30          1           0       -4.469716    1.359611    0.483905
     31          1           0       -1.079351    1.653147    0.315345
     32          1           0       -0.244696    1.562910    1.861626
 ---------------------------------------------------------------------

 SCF Done:  E(RB3LYP) =  -801.831750423     A.U. after   16 cycles

 Excitation energies and oscillator strengths:

 Excited State   1:      Triplet-A      2.5742 eV  481.63 nm  f=0.0000  <S**2>=2.000
      60 -> 65         0.22655
      64 -> 65         0.63235
 This state for optimization and/or second-order correction.
 Total Energy, E(TD-HF/TD-DFT) =  -801.737148595
 Copying the excited state density for this state as the 1-particle RhoCI density.

 Excited State   2:      Triplet-A      3.0730 eV  403.47 nm  f=0.0000  <S**2>=2.000
      63 -> 65        -0.26547
      63 -> 66         0.62736
      63 <- 66         0.10927

 Excited State   3:      Triplet-A      3.6709 eV  337.75 nm  f=0.0000  <S**2>=2.000
      60 -> 65         0.51610
      60 -> 66         0.12551
      61 -> 65        -0.16775
      64 -> 65        -0.16983
      64 -> 66         0.13500
      64 -> 67         0.27712
      64 -> 70         0.12604

 Excited State   4:      Singlet-A      3.9842 eV  311.19 nm  f=0.1165  <S**2>=0.000
      60 -> 65        -0.10002
      64 -> 65         0.69219

 Excited State   5:      Singlet-A      4.4726 eV  277.21 nm  f=0.0162  <S**2>=0.000
      64 -> 66         0.69777

 Excited State   6:      Singlet-A      4.5713 eV  271.22 nm  f=0.0028  <S**2>=0.000
      62 -> 65        -0.30206
      62 -> 66         0.41001
      63 -> 65         0.46563
      63 -> 66        -0.11721

 The electronic state is 1-A.
 Alpha  occ. eigenvalues --  -19.22786 -19.16590 -14.35826 -14.35045 -10.34151
 Alpha  occ. eigenvalues --  -10.28800 -10.27720 -10.24955 -10.24910 -10.24857
 Alpha  occ. eigenvalues --  -10.24623 -10.23453 -10.23257 -10.23092 -10.22754
 Alpha  occ. eigenvalues --  -10.22499 -10.22119 -10.19544  -1.13645  -1.05634
 Alpha  occ. eigenvalues --   -0.97024  -0.92556  -0.87024  -0.84680  -0.80989
 Alpha  occ. eigenvalues --   -0.79340  -0.76155  -0.74712  -0.69507  -0.68198
 Alpha  occ. eigenvalues --   -0.64273  -0.61412  -0.58884  -0.58255  -0.57193
 Alpha  occ. eigenvalues --   -0.54882  -0.52882  -0.51505  -0.50128  -0.49375
 Alpha  occ. eigenvalues --   -0.47619  -0.46925  -0.46259  -0.44232  -0.43771
 Alpha  occ. eigenvalues --   -0.43059  -0.42915  -0.42055  -0.41314  -0.41084
 Alpha  occ. eigenvalues --   -0.40101  -0.38498  -0.38112  -0.37608  -0.37014
 Alpha  occ. eigenvalues --   -0.36778  -0.35856  -0.34883  -0.33319  -0.31123
 Alpha  occ. eigenvalues --   -0.29583  -0.29164  -0.28039  -0.25656
 Alpha virt. eigenvalues --   -0.09091  -0.06864  -0.03194  -0.01896  -0.00461
 Alpha virt. eigenvalues --   -0.00173   0.00177   0.01055   0.01570   0.01955
 Alpha virt. eigenvalues --    0.02205   0.02509   0.02767   0.03178   0.03904

 Mulliken charges:
               1
     1  C   -0.394635
     2  C    0.535722
     3  C    0.038118
     4  N   -0.493962
     5  C    0.176280
     6  C   -0.205382
     7  C    0.189492
     8  C   -0.764144
     9  C   -0.296130
    10  C   -0.010302
    11  C   -0.214861
    12  C    0.015109
    13  C   -0.107373
    14  N   -0.192280
    15  C   -0.192905
    16  C    0.424110
    17  O   -0.452502
    18  O   -0.252584
    19  H    0.145044
    20  H    0.169764
    21  H    0.140459
    22  H    0.146859
    23  H    0.149402
    24  H    0.183167
    25  H    0.120290
    26  H    0.153155
    27  H    0.181006
    28  H    0.136138
    29  H    0.137772
    30  H    0.134921
    31  H    0.198189
    32  H    0.202063
 Sum of Mulliken charges =  -0.00000

 Dipole moment (field-independent basis, Debye):
    X=             -5.4629    Y=             -4.3212    Z=             -1.4256  Tot=              7.1097
 Quadrupole moment (field-independent basis, Debye-Ang):
   XX=           -136.6619   YY=           -111.1477   ZZ=           -101.7315
   XY=            -13.8992   XZ=              2.8543   YZ=              4.2646

 Normal termination of Gaussian 16 at Mon Aug 11 11:54:40 2025.
