 Gaussian 16, Revision C.02,
 Gaussian 16:  ES64L-G16RevC.02  7-Dec-2021

 ----------------------------------------------------------
 # td=(50-50,nstates=3) b3lyp/6-31+g(d,p) geom=connectivity
 ----------------------------------------------------------

 -------------------
 Title Card Required
 -------------------
 Symbolic Z-matrix:
 Charge =  0 Multiplicity = 1

                         Standard orientation:
 ---------------------------------------------------------------------
 Center     Atomic      Atomic             Coordinates (Angstroms)
 Number     Number       Type             X           Y           Z
 ---------------------------------------------------------------------
      1         17           0        4.437266   -0.000002   -0.000000
      2          6           0        2.677973    0.000001   -0.000001
      3          6           0        1.989419    1.140006    0.414099
      4          6           0        0.594365    1.131447    0.411852
      5          6           0       -0.131085    0.000003   -0.000000
      6          6           0       -1.617324    0.000002    0.000001
      7          6           0       -2.339484   -1.133529    0.413603
      8          6           0       -3.735322   -1.134252    0.412660
      9          6           0       -4.439779   -0.000003   -0.000000
     10          6           0       -3.735326    1.134250   -0.412659
     11          6           0       -2.339488    1.133530   -0.413602
     12          6           0        0.594363   -1.131443   -0.411851
     13          6           0        1.989416   -1.140004   -0.414101
     14          1           0        2.535825    2.017107    0.743534
     15          1           0        0.063323    2.012287    0.759709
     16          1           0       -1.803699   -2.011645    0.762240
     17          1           0       -4.272473   -2.018336    0.744284
     18          1           0       -5.525824   -0.000005   -0.000002
     19          1           0       -4.272480    2.018331   -0.744285
     20          1           0       -1.803706    2.011646   -0.762244
     21          1           0        0.063318   -2.012285   -0.759704
     22          1           0        2.535821   -2.017107   -0.743534
 ---------------------------------------------------------------------

 SCF Done:  E(RB3LYP) =  -922.933468062     A.U. after   14 cycles

 Excitation energies and oscillator strengths:

 Excited State   1:      Triplet-A      3.2294 eV  383.93 nm  f=0.0000  <S**2>=2.000
      46 -> 54         0.16408
      47 -> 51         0.20808
      48 -> 52        -0.17972
      49 -> 50         0.62339
 This state for optimization and/or second-order correction.
 Total Energy, E(TD-HF/TD-DFT) =  -922.814791345
 Copying the excited state density for this state as the 1-particle RhoCI density.

 Excited State   2:      Triplet-A      3.8553 eV  321.59 nm  f=0.0000  <S**2>=2.000
      46 -> 50        -0.35076
      47 -> 51         0.31196
      48 -> 52         0.38186
      49 -> 54        -0.31741

 Excited State   3:      Triplet-A      4.1973 eV  295.39 nm  f=0.0000  <S**2>=2.000
      46 -> 51        -0.14847
      47 -> 50         0.19047
      49 -> 51         0.65065

 Excited State   4:      Singlet-A      4.7446 eV  261.32 nm  f=0.5463  <S**2>=0.000
      49 -> 50         0.69567

 Excited State   5:      Singlet-A      4.7817 eV  259.29 nm  f=0.0020  <S**2>=0.000
      47 -> 50        -0.32585
      49 -> 51         0.61124

 Excited State   6:      Singlet-A      4.9005 eV  253.01 nm  f=0.0001  <S**2>=0.000
      47 -> 50        -0.10422
      48 -> 50         0.45117
      49 -> 52         0.51298

 The electronic state is 1-A.
 Alpha  occ. eigenvalues -- -101.55703 -10.26218 -10.21833 -10.21507 -10.21401
 Alpha  occ. eigenvalues --  -10.21400 -10.21155 -10.21154 -10.20470 -10.20459
 Alpha  occ. eigenvalues --  -10.20391 -10.20386 -10.20343  -9.47214  -7.23617
 Alpha  occ. eigenvalues --   -7.22651  -7.22622  -0.89998  -0.87234  -0.84351
 Alpha  occ. eigenvalues --   -0.78032  -0.76910  -0.75647  -0.72410  -0.63724
 Alpha  occ. eigenvalues --   -0.63066  -0.60850  -0.59002  -0.54231  -0.50502
 Alpha  occ. eigenvalues --   -0.48552  -0.48294  -0.45696  -0.45385  -0.44215
 Alpha  occ. eigenvalues --   -0.43474  -0.43063  -0.40355  -0.38793  -0.38035
 Alpha  occ. eigenvalues --   -0.37155  -0.35396  -0.35199  -0.33928  -0.31888
 Alpha  occ. eigenvalues --   -0.27957  -0.27307  -0.26471  -0.23633
 Alpha virt. eigenvalues --   -0.04800  -0.03045  -0.02283  -0.00426   0.00121
 Alpha virt. eigenvalues --    0.00710   0.01304   0.01592   0.02944   0.02997
 Alpha virt. eigenvalues --    0.04385   0.04754   0.04797   0.05138   0.06021

 Mulliken charges:
               1
     1  Cl   0.258095
     2  C    0.164610
     3  C   -0.504528
     4  C   -0.010704
     5  C    0.379122
     6  C    0.113954
     7  C   -0.113959
     8  C   -0.379207
     9  C   -0.062311
    10  C   -0.379207
    11  C   -0.113962
    12  C   -0.010691
    13  C   -0.504532
    14  H    0.143665
    15  H    0.127240
    16  H    0.120356
    17  H    0.127240
    18  H    0.126317
    19  H    0.127240
    20  H    0.120357
    21  H    0.127240
    22  H    0.143665
 Sum of Mulliken charges =  -0.00000

 Dipole moment (field-independent basis, Debye):
    X=             -2.0645    Y=             -0.0000    Z=             -0.0000  Tot=              2.0645
 Quadrupole moment (field-independent basis, Debye-Ang):
   XX=            -84.7101   YY=            -75.0130   ZZ=            -87.3519
   XY=              0.0000   XZ=              0.0000   YZ=              0.2654

 Normal termination of Gaussian 16 at Wed Sep 24 12:45:53 2025.
