 Gaussian 16, Revision C.02,
 Gaussian 16:  ES64L-G16RevC.02  7-Dec-2021

 ----------------------------------------------------------
 # td=(50-50,nstates=3) b3lyp/6-31+g(d,p) geom=connectivity
 ----------------------------------------------------------

 -------------------
 Title Card Required
 -------------------
 Symbolic Z-matrix:
 Charge =  0 Multiplicity = 1

                         Standard orientation:
 ---------------------------------------------------------------------
 Center     Atomic      Atomic             Coordinates (Angstroms)
 Number     Number       Type             X           Y           Z
 ---------------------------------------------------------------------
      1          6           0        3.030266    1.472348   -0.024833
      2          6           0        3.532469    0.104471   -0.504584
      3          6           0        2.833167   -1.128031    0.098183
      4          6           0        1.341190   -1.311583   -0.257624
      5          6           0        0.359522   -0.615909    0.717967
      6          6           0       -1.062358   -0.923217    0.385825
      7          6           0       -2.031366   -0.020660    0.092829
      8          6           0       -3.369386   -0.443427   -0.220730
      9          7           0       -4.448967   -0.795058   -0.472806
     10          6           0       -1.783125    1.395909    0.078721
     11          7           0       -1.578864    2.540847    0.065678
     12          1           0        3.663731    2.274643   -0.417729
     13          1           0        2.008816    1.681786   -0.358237
     14          1           0        3.049419    1.544015    1.069419
     15          1           0        4.602931    0.023113   -0.275241
     16          1           0        3.455463    0.053301   -1.599559
     17          1           0        3.373201   -2.016494   -0.251771
     18          1           0        2.948467   -1.118908    1.191698
     19          1           0        1.105319   -2.383530   -0.265228
     20          1           0        1.155664   -0.950775   -1.277705
     21          1           0        0.523975    0.463494    0.744853
     22          1           0        0.556339   -0.997662    1.731038
     23          1           0       -1.350776   -1.972904    0.363831
 ---------------------------------------------------------------------

 SCF Done:  E(RB3LYP) =  -459.669841968     A.U. after   14 cycles

 Excitation energies and oscillator strengths:

 Excited State   1:      Triplet-A      2.9691 eV  417.58 nm  f=0.0000  <S**2>=2.000
      40 -> 41         0.69738
      40 <- 41         0.12148
 This state for optimization and/or second-order correction.
 Total Energy, E(TD-HF/TD-DFT) =  -459.560729484
 Copying the excited state density for this state as the 1-particle RhoCI density.

 Excited State   2:      Triplet-A      5.2075 eV  238.09 nm  f=0.0000  <S**2>=2.000
      35 -> 41         0.55889
      36 -> 42        -0.18459
      40 -> 47        -0.29729

 Excited State   3:      Singlet-A      5.3313 eV  232.56 nm  f=0.4183  <S**2>=0.000
      40 -> 41         0.68329

 Excited State   4:      Triplet-A      5.5022 eV  225.34 nm  f=0.0000  <S**2>=2.000
      34 -> 41         0.11730
      34 -> 47        -0.11600
      35 -> 42        -0.10270
      36 -> 41         0.55763
      37 -> 41        -0.23649
      38 -> 41        -0.21888
      40 -> 42        -0.12123

 Excited State   5:      Singlet-A      5.7413 eV  215.95 nm  f=0.0014  <S**2>=0.000
      36 -> 41         0.24832
      38 -> 41        -0.11199
      39 -> 41         0.63277

 Excited State   6:      Singlet-A      5.8258 eV  212.82 nm  f=0.0045  <S**2>=0.000
      34 -> 41         0.12498
      36 -> 41         0.51311
      37 -> 41        -0.24556
      38 -> 41        -0.27442
      39 -> 41        -0.26200

 The electronic state is 1-A.
 Alpha  occ. eigenvalues --  -14.37184 -14.36903 -10.29611 -10.27289 -10.26453
 Alpha  occ. eigenvalues --  -10.26204 -10.23158 -10.21897 -10.20584 -10.19978
 Alpha  occ. eigenvalues --  -10.18858  -0.94496  -0.93077  -0.87612  -0.82681
 Alpha  occ. eigenvalues --   -0.78393  -0.72846  -0.67453  -0.64104  -0.60827
 Alpha  occ. eigenvalues --   -0.58856  -0.53463  -0.48184  -0.47266  -0.46902
 Alpha  occ. eigenvalues --   -0.43704  -0.42642  -0.41759  -0.40259  -0.39729
 Alpha  occ. eigenvalues --   -0.39076  -0.38782  -0.37773  -0.36997  -0.36818
 Alpha  occ. eigenvalues --   -0.35834  -0.34650  -0.34297  -0.33712  -0.29855
 Alpha virt. eigenvalues --   -0.09924  -0.02632  -0.01285   0.00125   0.00453
 Alpha virt. eigenvalues --    0.01012   0.01368   0.02574   0.02826   0.03119
 Alpha virt. eigenvalues --    0.03893   0.04556   0.04614   0.05939   0.06353

 Mulliken charges:
               1
     1  C   -0.476870
     2  C   -0.289649
     3  C   -0.121877
     4  C   -0.331647
     5  C   -0.185868
     6  C    0.277473
     7  C    0.801643
     8  C   -0.078320
     9  N   -0.482999
    10  C   -0.392805
    11  N   -0.484974
    12  H    0.150257
    13  H    0.146948
    14  H    0.143782
    15  H    0.139205
    16  H    0.138075
    17  H    0.140002
    18  H    0.130132
    19  H    0.140449
    20  H    0.150999
    21  H    0.162632
    22  H    0.168449
    23  H    0.154962
 Sum of Mulliken charges =  -0.00000

 Dipole moment (field-independent basis, Debye):
    X=              4.9579    Y=             -3.1615    Z=              1.0230  Tot=              5.9684
 Quadrupole moment (field-independent basis, Debye-Ang):
   XX=            -86.9114   YY=            -75.1948   ZZ=            -67.2723
   XY=             -0.1808   XZ=             -3.1013   YZ=             -1.6182

 Normal termination of Gaussian 16 at Wed Aug 27 21:02:39 2025.
