 Gaussian 16, Revision C.02,
 Gaussian 16:  ES64L-G16RevC.02  7-Dec-2021

 ----------------------------------------------------------
 # td=(50-50,nstates=3) b3lyp/6-31+g(d,p) geom=connectivity
 ----------------------------------------------------------

 -------------------
 Title Card Required
 -------------------
 Symbolic Z-matrix:
 Charge =  0 Multiplicity = 1

                         Standard orientation:
 ---------------------------------------------------------------------
 Center     Atomic      Atomic             Coordinates (Angstroms)
 Number     Number       Type             X           Y           Z
 ---------------------------------------------------------------------
      1          6           0        6.964392   -0.711012   -0.040420
      2          6           0        5.650621    0.077460    0.000518
      3          6           0        4.409595   -0.823757   -0.057901
      4          6           0        3.108492   -0.009719   -0.015372
      5          6           0        1.822552   -0.822900   -0.072515
      6          6           0        1.990070   -2.242575   -0.138383
      7          7           0        2.138082   -3.398820   -0.190164
      8          6           0        0.517777   -0.349647   -0.069026
      9          6           0       -0.593151   -1.276342   -0.136809
     10          6           0       -1.899000   -0.886368   -0.148083
     11          8           0       -2.960600   -1.708157   -0.233443
     12          6           0       -2.804836   -3.139769   -0.322696
     13          6           0       -2.600269   -3.785219    1.041512
     14          6           0       -2.247347    0.532427   -0.075906
     15          6           0       -3.562432    0.996158   -0.077485
     16          6           0       -3.809152    2.402954   -0.004075
     17          7           0       -3.984747    3.553903    0.056672
     18          6           0       -4.749056    0.204387   -0.144610
     19          7           0       -5.782472   -0.332495   -0.193412
     20          6           0       -1.156659    1.462239   -0.002332
     21          6           0        0.154626    1.072394    0.001395
     22          8           0        1.184187    1.941466    0.070808
     23          6           0        0.915924    3.357508    0.145923
     24          6           0        2.248614    4.078514    0.214403
     25          1           0        7.830482   -0.042327    0.002727
     26          1           0        7.036269   -1.405182    0.804774
     27          1           0        7.043771   -1.300960   -0.960777
     28          1           0        5.624082    0.787424   -0.837879
     29          1           0        5.616585    0.683944    0.916328
     30          1           0        4.437272   -1.532607    0.779319
     31          1           0        4.444294   -1.428764   -0.972823
     32          1           0        3.099393    0.709242   -0.842701
     33          1           0        3.089725    0.603176    0.893580
     34          1           0       -0.352553   -2.329252   -0.181109
     35          1           0       -3.745412   -3.469058   -0.769082
     36          1           0       -1.994346   -3.375743   -1.021884
     37          1           0       -2.559947   -4.873336    0.923643
     38          1           0       -1.670224   -3.463954    1.518160
     39          1           0       -3.434958   -3.541522    1.704746
     40          1           0       -1.407416    2.512105    0.051069
     41          1           0        0.344505    3.657992   -0.740629
     42          1           0        0.308072    3.556716    1.036783
     43          1           0        2.074515    5.157431    0.272733
     44          1           0        2.815160    3.773930    1.099040
     45          1           0        2.851416    3.875749   -0.675445
 ---------------------------------------------------------------------

 SCF Done:  E(RB3LYP) =  -1051.34617547     A.U. after   16 cycles

 Excitation energies and oscillator strengths:

 Excited State   1:      Triplet-A      0.9127 eV 1358.48 nm  f=0.0000  <S**2>=2.000
      86 -> 87         0.74392
      86 <- 87         0.25926
 This state for optimization and/or second-order correction.
 Total Energy, E(TD-HF/TD-DFT) =  -1051.31263556
 Copying the excited state density for this state as the 1-particle RhoCI density.

 Excited State   2:      Triplet-A      1.9894 eV  623.23 nm  f=0.0000  <S**2>=2.000
      85 -> 87         0.69738

 Excited State   3:      Singlet-A      2.6239 eV  472.52 nm  f=0.0446  <S**2>=0.000
      85 -> 87         0.65946
      86 -> 87         0.24293

 Excited State   4:      Singlet-A      2.9619 eV  418.60 nm  f=0.8824  <S**2>=0.000
      85 -> 87        -0.24147
      86 -> 87         0.67152
      86 <- 87        -0.14408

 Excited State   5:      Triplet-A      3.3124 eV  374.30 nm  f=0.0000  <S**2>=2.000
      84 -> 87         0.58652
      86 -> 88        -0.36093

 Excited State   6:      Singlet-A      4.2922 eV  288.86 nm  f=0.0065  <S**2>=0.000
      83 -> 87        -0.13882
      84 -> 87         0.55393
      86 -> 88         0.40889

 The electronic state is 1-A.
 Alpha  occ. eigenvalues --  -19.23118 -19.21660 -14.36435 -14.35887 -14.34728
 Alpha  occ. eigenvalues --  -10.30740 -10.29860 -10.28105 -10.27893 -10.27292
 Alpha  occ. eigenvalues --  -10.27190 -10.26876 -10.26394 -10.25459 -10.25292
 Alpha  occ. eigenvalues --  -10.24523 -10.22984 -10.22784 -10.22301 -10.21473
 Alpha  occ. eigenvalues --  -10.20325 -10.20208 -10.20139 -10.18898  -1.11683
 Alpha  occ. eigenvalues --   -1.10438  -0.93505  -0.93259  -0.91268  -0.90389
 Alpha  occ. eigenvalues --   -0.86710  -0.83178  -0.81677  -0.80305  -0.79494
 Alpha  occ. eigenvalues --   -0.77079  -0.75013  -0.71622  -0.69503  -0.66647
 Alpha  occ. eigenvalues --   -0.65874  -0.64860  -0.62365  -0.60209  -0.59197
 Alpha  occ. eigenvalues --   -0.58125  -0.55953  -0.53709  -0.52560  -0.52428
 Alpha  occ. eigenvalues --   -0.49871  -0.49714  -0.48961  -0.47904  -0.46912
 Alpha  occ. eigenvalues --   -0.45992  -0.45345  -0.44220  -0.43874  -0.43496
 Alpha  occ. eigenvalues --   -0.42640  -0.42473  -0.41375  -0.41287  -0.40234
 Alpha  occ. eigenvalues --   -0.40199  -0.39108  -0.38682  -0.38501  -0.38368
 Alpha  occ. eigenvalues --   -0.37802  -0.37425  -0.37272  -0.37192  -0.36632
 Alpha  occ. eigenvalues --   -0.35566  -0.35217  -0.35148  -0.34964  -0.34738
 Alpha  occ. eigenvalues --   -0.34521  -0.33443  -0.32791  -0.32045  -0.25968
 Alpha  occ. eigenvalues --   -0.23592
 Alpha virt. eigenvalues --   -0.13871  -0.04463  -0.01798  -0.01630  -0.01184
 Alpha virt. eigenvalues --   -0.00335  -0.00063   0.00367   0.00906   0.01126
 Alpha virt. eigenvalues --    0.01507   0.01751   0.02094   0.02962   0.03058

 Mulliken charges:
               1
     1  C   -0.742585
     2  C   -0.103386
     3  C   -0.754179
     4  C   -0.077032
     5  C    0.587279
     6  C   -0.774570
     7  N   -0.477716
     8  C    1.106156
     9  C   -0.284307
    10  C   -0.051306
    11  O   -0.302512
    12  C   -0.007089
    13  C   -0.394780
    14  C    0.716914
    15  C    0.607855
    16  C   -0.576620
    17  N   -0.487447
    18  C    0.037673
    19  N   -0.523601
    20  C   -0.335518
    21  C    0.364125
    22  O   -0.375396
    23  C    0.374770
    24  C   -0.789429
    25  H    0.146701
    26  H    0.149936
    27  H    0.149912
    28  H    0.137885
    29  H    0.137871
    30  H    0.159514
    31  H    0.159461
    32  H    0.177519
    33  H    0.177648
    34  H    0.136573
    35  H    0.163301
    36  H    0.136174
    37  H    0.158109
    38  H    0.158646
    39  H    0.170632
    40  H    0.147971
    41  H    0.153299
    42  H    0.153188
    43  H    0.160859
    44  H    0.163718
    45  H    0.163782
 Sum of Mulliken charges =  -0.00000

 Dipole moment (field-independent basis, Debye):
    X=              7.2601    Y=              0.9967    Z=              0.3933  Tot=              7.3387
 Quadrupole moment (field-independent basis, Debye-Ang):
   XX=           -182.3834   YY=           -149.4156   ZZ=           -143.1801
   XY=             28.9032   XZ=             -0.3652   YZ=             -0.5659

 Normal termination of Gaussian 16 at Mon Aug 11 12:34:37 2025.
