 Gaussian 16, Revision C.02,
 Gaussian 16:  ES64L-G16RevC.02  7-Dec-2021

 ----------------------------------------------------------
 # td=(50-50,nstates=3) b3lyp/6-31+g(d,p) geom=connectivity
 ----------------------------------------------------------

 -------------------
 Title Card Required
 -------------------
 Symbolic Z-matrix:
 Charge =  0 Multiplicity = 1

                         Standard orientation:
 ---------------------------------------------------------------------
 Center     Atomic      Atomic             Coordinates (Angstroms)
 Number     Number       Type             X           Y           Z
 ---------------------------------------------------------------------
      1          6           0        4.383222   -0.583385    0.143596
      2          6           0        2.962005   -0.538510    0.660936
      3          8           0        2.129205   -0.127862   -0.485620
      4          7           0        0.822068   -0.062835   -0.165340
      5          6           0        0.047159    1.079874   -0.102024
      6          6           0        0.606144    2.368978   -0.103195
      7          7           0        1.044065    3.451106   -0.096293
      8          6           0       -1.284566    0.633015   -0.007603
      9          6           0       -2.538617    1.280006    0.119241
     10          6           0       -3.670363    0.494876    0.188472
     11          6           0       -3.606254   -0.930397    0.140108
     12          6           0       -2.402402   -1.592570    0.021507
     13          6           0       -1.247371   -0.790846   -0.053543
     14          7           0        0.055015   -1.200951   -0.184336
     15          8           0        0.555946   -2.358519   -0.271782
     16          1           0        5.051546   -0.876502    0.959451
     17          1           0        4.479901   -1.316711   -0.661554
     18          1           0        4.699190    0.395963   -0.226696
     19          1           0        2.828770    0.207944    1.450574
     20          1           0        2.608798   -1.516866    0.994093
     21          1           0       -2.597734    2.362622    0.157467
     22          1           0       -4.641743    0.970386    0.282733
     23          1           0       -4.527858   -1.500504    0.198457
     24          1           0       -2.323859   -2.672781   -0.018500
 ---------------------------------------------------------------------

 SCF Done:  E(RB3LYP) =  -701.055610794     A.U. after   17 cycles

 Excitation energies and oscillator strengths:

 Excited State   1:      Triplet-A      1.5240 eV  813.54 nm  f=0.0000  <S**2>=2.000
      53 -> 54         0.71116
      53 <- 54         0.16857
 This state for optimization and/or second-order correction.
 Total Energy, E(TD-HF/TD-DFT) =  -700.999604350
 Copying the excited state density for this state as the 1-particle RhoCI density.

 Excited State   2:      Singlet-A      3.2844 eV  377.49 nm  f=0.1490  <S**2>=0.000
      53 -> 54         0.68912
      53 -> 55        -0.11476

 Excited State   3:      Triplet-A      3.3713 eV  367.77 nm  f=0.0000  <S**2>=2.000
      51 -> 54        -0.43955
      51 -> 55         0.14143
      53 -> 55         0.44818
      53 -> 56        -0.23277

 Excited State   4:      Triplet-A      3.7241 eV  332.93 nm  f=0.0000  <S**2>=2.000
      52 -> 54         0.67463
      53 -> 56         0.13960

 Excited State   5:      Singlet-A      4.3302 eV  286.32 nm  f=0.0208  <S**2>=0.000
      50 -> 54        -0.26316
      52 -> 54        -0.40550
      53 -> 55         0.47350
      53 -> 56         0.16518

 Excited State   6:      Singlet-A      4.3652 eV  284.03 nm  f=0.0073  <S**2>=0.000
      50 -> 54         0.63474
      53 -> 55         0.26980

 The electronic state is 1-A.
 Alpha  occ. eigenvalues --  -19.25671 -19.16719 -14.53064 -14.51543 -14.35983
 Alpha  occ. eigenvalues --  -10.28813 -10.27136 -10.26339 -10.25470 -10.24542
 Alpha  occ. eigenvalues --  -10.22966 -10.22888 -10.22495 -10.22426 -10.20587
 Alpha  occ. eigenvalues --   -1.20832  -1.12568  -1.00762  -0.92416  -0.89123
 Alpha  occ. eigenvalues --   -0.84545  -0.81853  -0.78158  -0.77349  -0.69373
 Alpha  occ. eigenvalues --   -0.67669  -0.65146  -0.64405  -0.59440  -0.57679
 Alpha  occ. eigenvalues --   -0.55215  -0.54605  -0.51054  -0.49767  -0.48058
 Alpha  occ. eigenvalues --   -0.46987  -0.46772  -0.46552  -0.41938  -0.41452
 Alpha  occ. eigenvalues --   -0.40808  -0.40088  -0.39617  -0.38660  -0.38329
 Alpha  occ. eigenvalues --   -0.38011  -0.35642  -0.34576  -0.33586  -0.29719
 Alpha  occ. eigenvalues --   -0.29409  -0.28394  -0.21753
 Alpha virt. eigenvalues --   -0.09184  -0.03269  -0.01569  -0.01128  -0.00463
 Alpha virt. eigenvalues --    0.00278   0.01364   0.01705   0.02321   0.03116
 Alpha virt. eigenvalues --    0.03892   0.04693   0.04940   0.05321   0.05409

 Mulliken charges:
               1
     1  C   -0.576772
     2  C    0.041126
     3  O    0.322307
     4  N   -0.712943
     5  C    1.760860
     6  C   -0.071766
     7  N   -0.599686
     8  C    1.034975
     9  C   -2.018545
    10  C   -0.023469
    11  C   -0.373676
    12  C   -0.097274
    13  C    0.083508
    14  N   -0.241080
    15  O    0.038702
    16  H    0.159782
    17  H    0.177530
    18  H    0.172941
    19  H    0.152265
    20  H    0.186407
    21  H    0.151325
    22  H    0.136011
    23  H    0.136707
    24  H    0.160765
 Sum of Mulliken charges =  -0.00000

 Dipole moment (field-independent basis, Debye):
    X=             -1.3611    Y=             -1.5300    Z=              1.7457  Tot=              2.6908
 Quadrupole moment (field-independent basis, Debye-Ang):
   XX=            -66.2753   YY=           -105.8753   ZZ=            -88.9613
   XY=             -4.8355   XZ=              3.6161   YZ=             -1.0708

 Normal termination of Gaussian 16 at Mon Aug 11 12:21:06 2025.
