 Gaussian 16, Revision C.02,
 Gaussian 16:  ES64L-G16RevC.02  7-Dec-2021

 ----------------------------------------------------------
 # td=(50-50,nstates=3) b3lyp/6-31+g(d,p) geom=connectivity
 ----------------------------------------------------------

 -------------------
 Title Card Required
 -------------------
 Symbolic Z-matrix:
 Charge =  0 Multiplicity = 1

                         Standard orientation:
 ---------------------------------------------------------------------
 Center     Atomic      Atomic             Coordinates (Angstroms)
 Number     Number       Type             X           Y           Z
 ---------------------------------------------------------------------
      1          6           0       -4.617193   -2.594255   -0.683540
      2          6           0       -3.941507   -1.593764   -0.063568
      3          6           0       -4.707177   -0.700031    0.766607
      4          7           0       -5.393354   -0.018458    1.412695
      5          6           0       -2.507384   -1.401608   -0.248274
      6          6           0       -1.564504   -0.551298    0.291434
      7          6           0       -1.872856    0.373327    1.469161
      8          6           0       -0.750478    0.424067    2.522132
      9          6           0       -2.365968    1.785136    1.092870
     10          6           0       -0.286025   -0.995671   -0.243824
     11          6           0        1.021648   -0.515735   -0.140577
     12          6           0        1.455174    0.860035   -0.016357
     13          6           0        0.770663    2.096519   -0.419547
     14          6           0       -0.071068    2.086464   -1.548645
     15          6           0       -0.678962    3.260243   -1.990921
     16          6           0       -0.458929    4.463686   -1.314647
     17          6           0        0.382251    4.485592   -0.198743
     18          6           0        1.000523    3.315797    0.243773
     19          7           0        2.785190    0.868947    0.253988
     20          8           0        3.545329    1.871125    0.393710
     21          6           0        3.290849   -0.469638    0.285920
     22          6           0        4.585244   -0.850430    0.581589
     23          6           0        4.850192   -2.226843    0.550705
     24          6           0        3.831710   -3.138604    0.250980
     25          6           0        2.523628   -2.717069   -0.032575
     26          6           0        2.246039   -1.347963   -0.030778
     27          6           0       -0.581253   -2.187882   -1.085752
     28          8           0        0.116869   -2.911742   -1.754831
     29          8           0       -1.960543   -2.329576   -1.111555
     30          1           0       -4.102092   -3.289416   -1.334330
     31          1           0       -5.684900   -2.708627   -0.540035
     32          1           0       -2.714694   -0.107834    1.976056
     33          1           0       -1.128342    0.924067    3.419805
     34          1           0       -0.421852   -0.579745    2.810457
     35          1           0        0.121602    0.984332    2.178514
     36          1           0       -2.779975    2.266345    1.985253
     37          1           0       -3.160351    1.746082    0.343308
     38          1           0       -1.562887    2.413494    0.710464
     39          1           0       -0.235973    1.160522   -2.089057
     40          1           0       -1.319967    3.235236   -2.867154
     41          1           0       -0.933624    5.377794   -1.658770
     42          1           0        0.564268    5.417851    0.327583
     43          1           0        1.665962    3.345754    1.097579
     44          1           0        5.337164   -0.109097    0.826527
     45          1           0        5.852072   -2.586070    0.763738
     46          1           0        4.056175   -4.200518    0.227495
     47          1           0        1.763628   -3.442514   -0.287345
 ---------------------------------------------------------------------

 SCF Done:  E(RB3LYP) =  -1260.52254013     A.U. after   19 cycles

 Excitation energies and oscillator strengths:

 Excited State   1:      Triplet-A      -0.5281 eV    -2347.53 nm  f=-0.0000  <S**2>=2.000
     100 ->101         0.75781
     100 <-101         0.31661
 This state for optimization and/or second-order correction.
 Total Energy, E(TD-HF/TD-DFT) =  -1260.54194919
 Copying the excited state density for this state as the 1-particle RhoCI density.

 Excited State   2:      Triplet-A      1.4384 eV  861.95 nm  f=0.0000  <S**2>=2.000
      99 ->101         0.67792
     100 ->102         0.12334

 Excited State   3:      Singlet-A      1.8981 eV  653.21 nm  f=0.0540  <S**2>=0.000
      99 ->101         0.50029
     100 ->101        -0.49071

 Excited State   4:      Singlet-A      2.2358 eV  554.54 nm  f=0.3767  <S**2>=0.000
      99 ->101         0.49271
     100 ->101         0.50449
     100 <-101        -0.13208

 Excited State   5:      Triplet-A      2.3448 eV  528.76 nm  f=0.0000  <S**2>=2.000
      94 ->101        -0.12896
      95 ->101        -0.33139
      96 ->101         0.35082
      98 ->101        -0.23114
      99 ->102         0.15426
     100 ->102         0.35082

 Excited State   6:      Singlet-A      2.6321 eV  471.05 nm  f=0.0037  <S**2>=0.000
      95 ->101         0.30295
      96 ->101        -0.22868
      98 ->101         0.58513

 The electronic state is 1-A.
 Alpha  occ. eigenvalues --  -19.23453 -19.17416 -19.17068 -14.50305 -14.36388
 Alpha  occ. eigenvalues --  -10.34489 -10.29599 -10.27609 -10.26273 -10.26233
 Alpha  occ. eigenvalues --  -10.25700 -10.25330 -10.25102 -10.24232 -10.24060
 Alpha  occ. eigenvalues --  -10.23418 -10.22784 -10.22504 -10.22307 -10.22204
 Alpha  occ. eigenvalues --  -10.21997 -10.21922 -10.21286 -10.21095 -10.20964
 Alpha  occ. eigenvalues --  -10.20944 -10.20861 -10.19026 -10.18031  -1.14793
 Alpha  occ. eigenvalues --   -1.14407  -1.06174  -0.95180  -0.93341  -0.88368
 Alpha  occ. eigenvalues --   -0.86918  -0.86627  -0.85506  -0.81336  -0.79681
 Alpha  occ. eigenvalues --   -0.78449  -0.76539  -0.76081  -0.75130  -0.72325
 Alpha  occ. eigenvalues --   -0.69548  -0.67459  -0.67058  -0.65490  -0.63910
 Alpha  occ. eigenvalues --   -0.62200  -0.61801  -0.59762  -0.57926  -0.57542
 Alpha  occ. eigenvalues --   -0.55265  -0.54175  -0.52954  -0.51674  -0.50443
 Alpha  occ. eigenvalues --   -0.50312  -0.49778  -0.49301  -0.48163  -0.47409
 Alpha  occ. eigenvalues --   -0.46842  -0.46627  -0.46086  -0.45968  -0.45414
 Alpha  occ. eigenvalues --   -0.44934  -0.43743  -0.43663  -0.42929  -0.42221
 Alpha  occ. eigenvalues --   -0.41881  -0.40885  -0.39993  -0.39538  -0.39280
 Alpha  occ. eigenvalues --   -0.38642  -0.38498  -0.38079  -0.37288  -0.37051
 Alpha  occ. eigenvalues --   -0.36466  -0.36237  -0.35979  -0.35563  -0.34857
 Alpha  occ. eigenvalues --   -0.33615  -0.31420  -0.30592  -0.29596  -0.28862
 Alpha  occ. eigenvalues --   -0.28578  -0.28283  -0.26865  -0.24291  -0.22006
 Alpha virt. eigenvalues --   -0.14506  -0.08204  -0.06409  -0.02708  -0.02574
 Alpha virt. eigenvalues --   -0.01452  -0.01046  -0.00078   0.00115   0.00240
 Alpha virt. eigenvalues --    0.00688   0.00850   0.01401   0.01574   0.02215

 Mulliken charges:
               1
     1  C   -0.273419
     2  C    0.593564
     3  C   -0.670963
     4  N   -0.427253
     5  C    0.219220
     6  C   -0.162595
     7  C    0.073893
     8  C   -0.560814
     9  C   -0.543761
    10  C    0.422221
    11  C    0.465522
    12  C   -0.221279
    13  C    0.721839
    14  C   -0.743585
    15  C   -0.100130
    16  C   -0.189562
    17  C   -0.209221
    18  C   -0.395252
    19  N   -0.329018
    20  O    0.118236
    21  C   -0.803834
    22  C   -0.220663
    23  C   -0.140383
    24  C   -0.174167
    25  C   -0.527016
    26  C    1.591416
    27  C    0.607441
    28  O   -0.473947
    29  O   -0.309526
    30  H    0.183071
    31  H    0.169991
    32  H    0.133148
    33  H    0.149606
    34  H    0.145385
    35  H    0.160393
    36  H    0.148654
    37  H    0.151666
    38  H    0.165020
    39  H    0.124014
    40  H    0.127283
    41  H    0.128368
    42  H    0.129999
    43  H    0.151250
    44  H    0.162114
    45  H    0.137695
    46  H    0.136431
    47  H    0.158946
 Sum of Mulliken charges =  -0.00000

 Dipole moment (field-independent basis, Debye):
    X=              0.4505    Y=             -1.2380    Z=              0.3843  Tot=              1.3724
 Quadrupole moment (field-independent basis, Debye-Ang):
   XX=           -175.0449   YY=           -160.2699   ZZ=           -173.1713
   XY=             -3.6675   XZ=             14.7155   YZ=             -6.8477

 Normal termination of Gaussian 16 at Mon Aug 11 12:09:36 2025.
