 Gaussian 16, Revision C.02,
 Gaussian 16:  ES64L-G16RevC.02  7-Dec-2021

 ----------------------------------------------------------
 # td=(50-50,nstates=3) b3lyp/6-31+g(d,p) geom=connectivity
 ----------------------------------------------------------

 -------------------
 Title Card Required
 -------------------
 Symbolic Z-matrix:
 Charge =  0 Multiplicity = 1

                         Standard orientation:
 ---------------------------------------------------------------------
 Center     Atomic      Atomic             Coordinates (Angstroms)
 Number     Number       Type             X           Y           Z
 ---------------------------------------------------------------------
      1         17           0        1.754043    2.487999    0.262443
      2          6           0        2.607159    0.982655   -0.090189
      3          6           0        3.682025    1.051411   -0.978572
      4          6           0        4.406555   -0.103155   -1.273384
      5          6           0        4.056720   -1.313257   -0.671126
      6          6           0        2.981080   -1.361261    0.215049
      7          6           0        2.222940   -0.220168    0.524179
      8          6           0        1.059055   -0.315862    1.502810
      9          6           0       -0.301380   -0.486307    0.846157
     10          6           0       -1.193488    0.552882    0.733909
     11          6           0       -2.433309    0.292133    0.100389
     12          6           0       -2.797604   -0.986209   -0.413821
     13          6           0       -1.880335   -2.070294   -0.281597
     14          6           0       -0.698703   -1.778652    0.331720
     15          9           0        0.192982   -2.786843    0.504283
     16          7           0       -4.006490   -0.970132   -0.955903
     17          8           0       -4.461334    0.319307   -0.808723
     18          7           0       -3.464815    1.117018   -0.138027
     19          8           0       -3.692737    2.301429    0.085790
     20          1           0        3.944466    2.003315   -1.426913
     21          1           0        5.242152   -0.050699   -1.964561
     22          1           0        4.619559   -2.216293   -0.886126
     23          1           0        2.712556   -2.303593    0.681808
     24          1           0        1.241230   -1.163814    2.169838
     25          1           0        1.026585    0.582070    2.124500
     26          1           0       -0.965426    1.545055    1.104144
     27          1           0       -2.109284   -3.068034   -0.634931
 ---------------------------------------------------------------------

 SCF Done:  E(RB3LYP) =  -1320.08126877     A.U. after   18 cycles

 Excitation energies and oscillator strengths:

 Excited State   1:      Triplet-A      1.3307 eV  931.69 nm  f=0.0000  <S**2>=2.000
      71 -> 72         0.72190
      71 <- 72         0.22414
 This state for optimization and/or second-order correction.
 Total Energy, E(TD-HF/TD-DFT) =  -1320.03236469
 Copying the excited state density for this state as the 1-particle RhoCI density.

 Excited State   2:      Triplet-A      3.3380 eV  371.44 nm  f=0.0000  <S**2>=2.000
      66 -> 72         0.30036
      68 -> 72         0.51382
      70 -> 72        -0.11999
      71 -> 75        -0.31539

 Excited State   3:      Singlet-A      3.3485 eV  370.26 nm  f=0.0887  <S**2>=0.000
      71 -> 72         0.69776

 Excited State   4:      Triplet-A      3.5260 eV  351.63 nm  f=0.0000  <S**2>=2.000
      65 -> 72        -0.10178
      66 -> 72         0.33417
      68 -> 72        -0.22524
      69 -> 72         0.18341
      69 -> 73         0.14135
      70 -> 72         0.38255
      70 -> 74         0.17277
      71 -> 73        -0.14134
      71 -> 75        -0.17872
      71 -> 76        -0.13522

 Excited State   5:      Singlet-A      3.6668 eV  338.13 nm  f=0.0130  <S**2>=0.000
      70 -> 72         0.70438

 Excited State   6:      Singlet-A      3.9982 eV  310.10 nm  f=0.0094  <S**2>=0.000
      69 -> 72         0.69956

 The electronic state is 1-A.
 Alpha  occ. eigenvalues -- -101.57002 -24.75642 -19.29288 -19.20377 -14.56184
 Alpha  occ. eigenvalues --  -14.42174 -10.32175 -10.27848 -10.27435 -10.27364
 Alpha  occ. eigenvalues --  -10.25431 -10.24759 -10.24045 -10.23635 -10.23221
 Alpha  occ. eigenvalues --  -10.22220 -10.21989 -10.21875 -10.21678  -9.48479
 Alpha  occ. eigenvalues --   -7.24875  -7.23924  -7.23895  -1.26271  -1.23298
 Alpha  occ. eigenvalues --   -1.13233  -0.93765  -0.91269  -0.89708  -0.86638
 Alpha  occ. eigenvalues --   -0.85440  -0.81579  -0.79021  -0.75697  -0.73485
 Alpha  occ. eigenvalues --   -0.69688  -0.67390  -0.63969  -0.63220  -0.61191
 Alpha  occ. eigenvalues --   -0.59202  -0.56552  -0.55225  -0.54322  -0.53115
 Alpha  occ. eigenvalues --   -0.51770  -0.50372  -0.49580  -0.49005  -0.48134
 Alpha  occ. eigenvalues --   -0.47206  -0.46008  -0.44785  -0.44466  -0.43516
 Alpha  occ. eigenvalues --   -0.42891  -0.41936  -0.41027  -0.39967  -0.39690
 Alpha  occ. eigenvalues --   -0.38094  -0.37731  -0.37405  -0.35087  -0.33352
 Alpha  occ. eigenvalues --   -0.31697  -0.31018  -0.29973  -0.27719  -0.26490
 Alpha  occ. eigenvalues --   -0.24128
 Alpha virt. eigenvalues --   -0.11081  -0.04099  -0.03733  -0.02452  -0.01980
 Alpha virt. eigenvalues --   -0.00809  -0.00671   0.00651   0.01420   0.01524
 Alpha virt. eigenvalues --    0.01934   0.03050   0.03280   0.03517   0.04050

 Mulliken charges:
               1
     1  Cl   0.200592
     2  C    0.472860
     3  C   -0.432034
     4  C    0.013691
     5  C   -0.126944
     6  C    0.047258
     7  C   -0.674799
     8  C    0.125794
     9  C    1.028621
    10  C    0.408303
    11  C   -0.568559
    12  C   -0.112688
    13  C   -0.010183
    14  C   -0.586859
    15  F   -0.325129
    16  N   -0.400314
    17  O    0.342406
    18  N   -0.673125
    19  O    0.059346
    20  H    0.148103
    21  H    0.135437
    22  H    0.133657
    23  H    0.134083
    24  H    0.162677
    25  H    0.161999
    26  H    0.167349
    27  H    0.168456
 Sum of Mulliken charges =  -0.00000

 Dipole moment (field-independent basis, Debye):
    X=              4.7555    Y=             -2.4198    Z=              0.8829  Tot=              5.4083
 Quadrupole moment (field-independent basis, Debye-Ang):
   XX=           -126.9319   YY=           -118.7943   ZZ=           -113.1645
   XY=              3.9106   XZ=             -8.0910   YZ=             -0.9757

 Normal termination of Gaussian 16 at Wed Sep 24 12:52:26 2025.
