 Gaussian 16, Revision C.02,
 Gaussian 16:  ES64L-G16RevC.02  7-Dec-2021

 ----------------------------------------------------------
 # td=(50-50,nstates=3) b3lyp/6-31+g(d,p) geom=connectivity
 ----------------------------------------------------------

 -------------------
 Title Card Required
 -------------------
 Symbolic Z-matrix:
 Charge =  0 Multiplicity = 1

                         Standard orientation:
 ---------------------------------------------------------------------
 Center     Atomic      Atomic             Coordinates (Angstroms)
 Number     Number       Type             X           Y           Z
 ---------------------------------------------------------------------
      1          6           0        4.295937   -3.757319    0.034211
      2          6           0        5.267150   -2.856002   -0.736758
      3          7           0        5.398811   -1.498363   -0.194699
      4          6           0        6.603883   -1.143807    0.558960
      5          6           0        6.645324   -1.723161    1.977429
      6          6           0        4.429765   -0.593766   -0.489147
      7          7           0        3.361545   -0.858152   -1.192772
      8          6           0        2.646832    0.401708   -1.301087
      9          6           0        1.194524    0.349881   -0.851117
     10          6           0        0.221638    1.111804   -1.508791
     11          6           0       -1.106059    1.096921   -1.080404
     12          6           0       -1.489312    0.311679    0.018793
     13          6           0       -2.895810    0.255566    0.522198
     14          8           0       -3.206228   -0.444039    1.475889
     15          6           0       -3.962589    1.118566   -0.177703
     16          7           0       -5.300588    0.961215    0.349070
     17          6           0       -5.608380    1.460946    1.681039
     18          7           0       -5.957432   -0.101018   -0.166422
     19          6           0       -7.001307   -0.586111    0.403508
     20          6           0       -7.702571   -1.747162   -0.264787
     21          6           0       -9.109968   -1.454425   -0.574618
     22          7           0      -10.223656   -1.214033   -0.801406
     23          6           0       -0.510831   -0.459090    0.671938
     24          6           0        0.810614   -0.442034    0.241483
     25          6           0        3.527235    1.352496   -0.469074
     26         16           0        3.148393    3.036194   -0.229780
     27          6           0        4.599831    3.589342    0.731837
     28          7           0        4.573393    0.748464   -0.012616
     29          1           0        4.264015   -4.749183   -0.430870
     30          1           0        4.601024   -3.879638    1.078107
     31          1           0        3.287405   -3.337896    0.007011
     32          1           0        4.932247   -2.772180   -1.776215
     33          1           0        6.270531   -3.294994   -0.740945
     34          1           0        7.473494   -1.497776   -0.011392
     35          1           0        6.660147   -0.056446    0.601906
     36          1           0        7.569454   -1.413326    2.478618
     37          1           0        5.796864   -1.363964    2.568590
     38          1           0        6.620465   -2.817556    1.971713
     39          1           0        2.666528    0.756328   -2.343372
     40          1           0        0.499536    1.716619   -2.368125
     41          1           0       -1.833920    1.695225   -1.618434
     42          1           0       -3.669296    2.173799   -0.106318
     43          1           0       -3.995647    0.860685   -1.240760
     44          1           0       -6.635353    1.843631    1.710508
     45          1           0       -5.486288    0.684369    2.448503
     46          1           0       -4.931915    2.286738    1.908542
     47          1           0       -7.419406   -0.217362    1.340634
     48          1           0       -7.175247   -1.996182   -1.191024
     49          1           0       -7.682407   -2.637140    0.379155
     50          1           0       -0.813842   -1.070232    1.515723
     51          1           0        1.556092   -1.054938    0.737367
     52          1           0        4.445179    4.652213    0.928271
     53          1           0        4.661693    3.037915    1.670781
     54          1           0        5.514230    3.441500    0.155849
 ---------------------------------------------------------------------

 SCF Done:  E(RB3LYP) =  -1579.72323052     A.U. after   16 cycles

 Excitation energies and oscillator strengths:

 Excited State   1:      Triplet-A      2.9085 eV  426.29 nm  f=0.0000  <S**2>=2.000
     100 ->107         0.16534
     101 ->107        -0.25243
     105 ->107         0.27582
     106 ->107         0.55042
 This state for optimization and/or second-order correction.
 Total Energy, E(TD-HF/TD-DFT) =  -1579.61634618
 Copying the excited state density for this state as the 1-particle RhoCI density.

 Excited State   2:      Triplet-A      3.1055 eV  399.24 nm  f=0.0000  <S**2>=2.000
     103 ->107        -0.29026
     104 ->108         0.11398
     105 ->107         0.37382
     105 ->108        -0.35816
     106 ->107        -0.17736
     106 ->108         0.22466

 Excited State   3:      Singlet-A      3.1344 eV  395.56 nm  f=0.0010  <S**2>=0.000
     101 ->107        -0.13465
     105 ->107         0.31399
     106 ->107         0.60499

 Excited State   4:      Triplet-A      3.2221 eV  384.80 nm  f=0.0000  <S**2>=2.000
      98 ->107        -0.10041
     100 ->109         0.11429
     102 ->107         0.12496
     103 ->107         0.42251
     104 ->108         0.11840
     105 ->107        -0.10603
     105 ->108        -0.37497
     106 ->108         0.22787

 Excited State   5:      Singlet-A      3.4401 eV  360.41 nm  f=0.0124  <S**2>=0.000
     105 ->107         0.62386
     106 ->107        -0.32423

 Excited State   6:      Singlet-A      4.0345 eV  307.31 nm  f=0.0768  <S**2>=0.000
     105 ->108         0.58537
     106 ->108        -0.38123

 The electronic state is 1-A.
 Alpha  occ. eigenvalues --  -88.91940 -19.15748 -14.39381 -14.38095 -14.37143
 Alpha  occ. eigenvalues --  -14.35006 -14.33692 -14.30815 -10.29116 -10.28527
 Alpha  occ. eigenvalues --  -10.28022 -10.24562 -10.24190 -10.23955 -10.23381
 Alpha  occ. eigenvalues --  -10.23126 -10.23088 -10.23075 -10.22666 -10.22608
 Alpha  occ. eigenvalues --  -10.22566 -10.22020 -10.21738 -10.21349 -10.21093
 Alpha  occ. eigenvalues --  -10.20761 -10.19044 -10.18096  -7.97896  -5.94413
 Alpha  occ. eigenvalues --   -5.93974  -5.93464  -1.05757  -1.02391  -1.01842
 Alpha  occ. eigenvalues --   -0.94793  -0.90544  -0.88529  -0.87027  -0.86702
 Alpha  occ. eigenvalues --   -0.82199  -0.79662  -0.78185  -0.77518  -0.76851
 Alpha  occ. eigenvalues --   -0.76124  -0.74942  -0.72247  -0.69392  -0.67869
 Alpha  occ. eigenvalues --   -0.65457  -0.64380  -0.62829  -0.61897  -0.58319
 Alpha  occ. eigenvalues --   -0.57322  -0.56174  -0.54408  -0.54073  -0.53092
 Alpha  occ. eigenvalues --   -0.52045  -0.51525  -0.49714  -0.49238  -0.48816
 Alpha  occ. eigenvalues --   -0.47884  -0.46783  -0.46560  -0.45872  -0.45856
 Alpha  occ. eigenvalues --   -0.45231  -0.44686  -0.44590  -0.44203  -0.43809
 Alpha  occ. eigenvalues --   -0.43435  -0.42987  -0.42342  -0.42180  -0.41679
 Alpha  occ. eigenvalues --   -0.40447  -0.39676  -0.39534  -0.39059  -0.38899
 Alpha  occ. eigenvalues --   -0.37234  -0.37115  -0.36919  -0.36453  -0.36350
 Alpha  occ. eigenvalues --   -0.35883  -0.35618  -0.35477  -0.35018  -0.33025
 Alpha  occ. eigenvalues --   -0.32629  -0.32560  -0.31325  -0.28887  -0.27511
 Alpha  occ. eigenvalues --   -0.27451  -0.26986  -0.26569  -0.25609  -0.22261
 Alpha  occ. eigenvalues --   -0.22171
 Alpha virt. eigenvalues --   -0.07604  -0.04906  -0.03139  -0.01395  -0.01228
 Alpha virt. eigenvalues --   -0.00676   0.00145   0.00526   0.00971   0.01219
 Alpha virt. eigenvalues --    0.01551   0.01679   0.01812   0.02153   0.02529

 Mulliken charges:
               1
     1  C   -0.430731
     2  C   -0.065565
     3  N   -0.107799
     4  C   -0.046962
     5  C   -0.460493
     6  C   -0.232198
     7  N   -0.320895
     8  C    0.181247
     9  C   -0.101461
    10  C   -0.451109
    11  C   -0.746862
    12  C    0.836014
    13  C    0.220299
    14  O   -0.362962
    15  C   -0.543719
    16  N    0.215242
    17  C   -0.255942
    18  N   -0.120366
    19  C   -0.071338
    20  C   -0.275900
    21  C    0.256295
    22  N   -0.516629
    23  C    0.324675
    24  C   -0.141514
    25  C   -0.492857
    26  S    0.281346
    27  C   -0.588731
    28  N   -0.102120
    29  H    0.141051
    30  H    0.137913
    31  H    0.177106
    32  H    0.165890
    33  H    0.127745
    34  H    0.135035
    35  H    0.172725
    36  H    0.143628
    37  H    0.158016
    38  H    0.146521
    39  H    0.156916
    40  H    0.116427
    41  H    0.127234
    42  H    0.163084
    43  H    0.180339
    44  H    0.145168
    45  H    0.179350
    46  H    0.145257
    47  H    0.127144
    48  H    0.202410
    49  H    0.194350
    50  H    0.155669
    51  H    0.136341
    52  H    0.177152
    53  H    0.205133
    54  H    0.203431
 Sum of Mulliken charges =  -0.00000

 Dipole moment (field-independent basis, Debye):
    X=              9.1470    Y=              2.8073    Z=              1.6520  Tot=              9.7096
 Quadrupole moment (field-independent basis, Debye-Ang):
   XX=           -233.7219   YY=           -160.2769   ZZ=           -175.1881
   XY=             -7.4599   XZ=             -9.0972   YZ=              0.0511

 Normal termination of Gaussian 16 at Mon Aug 11 12:34:14 2025.
