 Gaussian 16, Revision C.02,
 Gaussian 16:  ES64L-G16RevC.02  7-Dec-2021

 ----------------------------------------------------------
 # td=(50-50,nstates=3) b3lyp/6-31+g(d,p) geom=connectivity
 ----------------------------------------------------------

 -------------------
 Title Card Required
 -------------------
 Symbolic Z-matrix:
 Charge =  0 Multiplicity = 1

                         Standard orientation:
 ---------------------------------------------------------------------
 Center     Atomic      Atomic             Coordinates (Angstroms)
 Number     Number       Type             X           Y           Z
 ---------------------------------------------------------------------
      1          6           0       -6.116306    0.577710   -0.291287
      2          6           0       -5.157193   -0.294931   -0.651110
      3          6           0       -5.174845   -0.882099   -1.967991
      4          7           0       -5.177990   -1.346121   -3.034489
      5          6           0       -4.055355   -0.710002    0.240268
      6          6           0       -3.128611   -0.012079    0.922038
      7          6           0       -2.925326    1.486615    0.953481
      8          6           0       -2.641794    1.993013    2.381386
      9          6           0       -1.884987    2.017309   -0.072852
     10          6           0       -0.430001    1.537935    0.074766
     11         16           0       -0.119599    0.097058   -1.039509
     12          6           0        1.594188   -0.156299   -0.663686
     13          6           0        2.155777   -1.438101   -0.709152
     14          6           0        3.518143   -1.626488   -0.490033
     15          6           0        4.326867   -0.522594   -0.198254
     16          6           0        5.787316   -0.724277    0.109020
     17          9           0        6.325055   -1.737698   -0.611172
     18          9           0        6.524458    0.385561   -0.145283
     19          9           0        5.989410   -1.030886    1.420008
     20          6           0        3.778673    0.758123   -0.129321
     21          6           0        2.415274    0.951630   -0.377448
     22          7           0        1.891612    2.254679   -0.383869
     23          6           0        0.582303    2.652054   -0.227243
     24          8           0        0.280194    3.836342   -0.269382
     25          6           0       -2.280912   -1.023812    1.656515
     26          6           0       -2.866829   -2.359183    1.222670
     27          8           0       -2.539593   -3.476479    1.514462
     28          8           0       -3.930701   -2.098493    0.376530
     29          1           0       -6.138451    0.996515    0.708669
     30          1           0       -6.892805    0.876735   -0.986724
     31          1           0       -3.866682    1.945481    0.634578
     32          1           0       -2.569220    3.084856    2.390199
     33          1           0       -3.443286    1.700165    3.067518
     34          1           0       -1.703903    1.596732    2.785934
     35          1           0       -2.235994    1.792027   -1.086548
     36          1           0       -1.866850    3.108406    0.008927
     37          1           0       -0.226064    1.209931    1.102393
     38          1           0        1.518839   -2.290150   -0.924894
     39          1           0        3.945009   -2.621674   -0.539621
     40          1           0        4.410592    1.610277    0.099908
     41          1           0        2.542386    3.026359   -0.471845
     42          1           0       -1.219403   -0.999094    1.388239
     43          1           0       -2.343738   -0.940280    2.748480
 ---------------------------------------------------------------------

 SCF Done:  E(RB3LYP) =  -1766.00593411     A.U. after   17 cycles

 Excitation energies and oscillator strengths:

 Excited State   1:      Triplet-A      2.8223 eV  439.30 nm  f=0.0000  <S**2>=2.000
     100 ->106        -0.30036
     101 ->106         0.10405
     104 ->106         0.58742
     104 ->109         0.12532
 This state for optimization and/or second-order correction.
 Total Energy, E(TD-HF/TD-DFT) =  -1765.90221548
 Copying the excited state density for this state as the 1-particle RhoCI density.

 Excited State   2:      Triplet-A      3.2022 eV  387.18 nm  f=0.0000  <S**2>=2.000
     102 ->108         0.10096
     103 ->108         0.23003
     105 ->107         0.61658

 Excited State   3:      Triplet-A      3.5907 eV  345.30 nm  f=0.0000  <S**2>=2.000
     100 ->106        -0.49027
     101 ->106         0.20227
     104 ->106        -0.17378
     104 ->109        -0.34220

 Excited State   4:      Singlet-A      3.9052 eV  317.49 nm  f=0.0137  <S**2>=0.000
     104 ->106        -0.15410
     105 ->106         0.68610

 Excited State   5:      Singlet-A      4.0278 eV  307.82 nm  f=0.0706  <S**2>=0.000
     104 ->106         0.67414
     105 ->106         0.15569

 Excited State   6:      Singlet-A      4.2023 eV  295.04 nm  f=0.0375  <S**2>=0.000
     103 ->107         0.17245
     105 ->107         0.61815
     105 ->108        -0.24943
     105 ->111         0.10757

 The electronic state is 1-A.
 Alpha  occ. eigenvalues --  -88.92862 -24.76148 -24.76007 -24.75571 -19.23307
 Alpha  occ. eigenvalues --  -19.17130 -19.16599 -14.41636 -14.36280 -10.46386
 Alpha  occ. eigenvalues --  -10.34720 -10.33676 -10.29207 -10.28574 -10.28075
 Alpha  occ. eigenvalues --  -10.27111 -10.26608 -10.25366 -10.25133 -10.24980
 Alpha  occ. eigenvalues --  -10.24254 -10.24058 -10.23955 -10.23837 -10.23777
 Alpha  occ. eigenvalues --  -10.23493 -10.22505 -10.21282  -7.98696  -5.95218
 Alpha  occ. eigenvalues --   -5.94862  -5.94196  -1.33034  -1.24611  -1.24056
 Alpha  occ. eigenvalues --   -1.14123  -1.08453  -1.06165  -0.98871  -0.92984
 Alpha  occ. eigenvalues --   -0.90304  -0.88103  -0.86306  -0.84836  -0.82312
 Alpha  occ. eigenvalues --   -0.79882  -0.79110  -0.75396  -0.74861  -0.71342
 Alpha  occ. eigenvalues --   -0.69602  -0.68627  -0.67199  -0.66272  -0.64525
 Alpha  occ. eigenvalues --   -0.62229  -0.61314  -0.60791  -0.60746  -0.59076
 Alpha  occ. eigenvalues --   -0.57975  -0.55458  -0.54109  -0.53325  -0.52537
 Alpha  occ. eigenvalues --   -0.51848  -0.50643  -0.50151  -0.49174  -0.48763
 Alpha  occ. eigenvalues --   -0.48410  -0.48094  -0.47596  -0.47256  -0.46399
 Alpha  occ. eigenvalues --   -0.46248  -0.45109  -0.44880  -0.44404  -0.44081
 Alpha  occ. eigenvalues --   -0.43636  -0.43328  -0.42845  -0.42643  -0.42202
 Alpha  occ. eigenvalues --   -0.41672  -0.41267  -0.40424  -0.40247  -0.39377
 Alpha  occ. eigenvalues --   -0.38322  -0.38111  -0.37671  -0.37284  -0.36793
 Alpha  occ. eigenvalues --   -0.36141  -0.35428  -0.34735  -0.32694  -0.31447
 Alpha  occ. eigenvalues --   -0.30075  -0.30002  -0.27214  -0.26347  -0.25144
 Alpha virt. eigenvalues --   -0.09091  -0.07058  -0.05963  -0.04295  -0.02732
 Alpha virt. eigenvalues --   -0.02246  -0.01506  -0.01003  -0.00611  -0.00121
 Alpha virt. eigenvalues --    0.00302   0.01243   0.01374   0.01556   0.01872

 Mulliken charges:
               1
     1  C   -0.262636
     2  C    0.073076
     3  C   -0.318560
     4  N   -0.445029
     5  C    0.093859
     6  C    0.369189
     7  C    0.488161
     8  C   -0.595104
     9  C   -0.388140
    10  C   -0.259857
    11  S    0.066293
    12  C    0.203170
    13  C    0.034179
    14  C   -0.072454
    15  C   -1.099766
    16  C    1.765040
    17  F   -0.296036
    18  F   -0.309756
    19  F   -0.266168
    20  C   -0.057813
    21  C   -0.287225
    22  N   -0.380328
    23  C    0.333326
    24  O   -0.428931
    25  C   -0.468455
    26  C    0.492852
    27  O   -0.431892
    28  O   -0.210486
    29  H    0.155623
    30  H    0.170542
    31  H    0.129294
    32  H    0.159638
    33  H    0.155660
    34  H    0.144342
    35  H    0.161810
    36  H    0.200345
    37  H    0.200876
    38  H    0.149482
    39  H    0.157293
    40  H    0.146232
    41  H    0.329126
    42  H    0.200089
    43  H    0.199138
 Sum of Mulliken charges =  -0.00000

 Dipole moment (field-independent basis, Debye):
    X=             -0.9334    Y=              4.8558    Z=              3.6499  Tot=              6.1459
 Quadrupole moment (field-independent basis, Debye-Ang):
   XX=           -174.8477   YY=           -192.1250   ZZ=           -179.9365
   XY=            -19.4733   XZ=            -19.5113   YZ=              3.1118

 Normal termination of Gaussian 16 at Wed Aug 27 10:33:58 2025.
