 Gaussian 16, Revision C.02,
 Gaussian 16:  ES64L-G16RevC.02  7-Dec-2021

 ----------------------------------------------------------
 # td=(50-50,nstates=3) b3lyp/6-31+g(d,p) geom=connectivity
 ----------------------------------------------------------

 -------------------
 Title Card Required
 -------------------
 Symbolic Z-matrix:
 Charge =  0 Multiplicity = 1

                         Standard orientation:
 ---------------------------------------------------------------------
 Center     Atomic      Atomic             Coordinates (Angstroms)
 Number     Number       Type             X           Y           Z
 ---------------------------------------------------------------------
      1          6           0       -4.462743    0.469160    0.369173
      2          8           0       -3.888424   -0.521442   -0.515499
      3          6           0       -2.628878   -0.962119   -0.397723
      4          8           0       -2.242102   -1.883543   -1.083999
      5          6           0       -1.696126   -0.295391    0.630462
      6          7           0       -0.514493   -1.119885    0.867508
      7          6           0        0.616757   -0.433314    0.443221
      8          6           0        1.931785   -0.913404    0.395096
      9          6           0        2.915096   -0.018311   -0.016788
     10         17           0        4.575344   -0.577082   -0.090332
     11          6           0        2.644224    1.318787   -0.372846
     12          6           0        1.333164    1.774317   -0.329295
     13          6           0        0.322960    0.891300    0.071430
     14          6           0       -1.119758    1.083671    0.147878
     15          8           0       -1.782950    2.083479   -0.074559
     16          1           0       -5.447112    0.673973   -0.050730
     17          1           0       -4.581190    0.051766    1.374631
     18          1           0       -3.863398    1.379989    0.383208
     19          1           0       -2.239770   -0.119967    1.566073
     20          1           0       -0.601201   -2.081734    0.556040
     21          1           0        2.182139   -1.931096    0.671841
     22          1           0        3.455985    1.967637   -0.679213
     23          1           0        1.084077    2.792892   -0.609954
 ---------------------------------------------------------------------

 SCF Done:  E(RB3LYP) =  -1126.53982898     A.U. after   16 cycles

 Excitation energies and oscillator strengths:

 Excited State   1:      Triplet-A      2.8024 eV  442.42 nm  f=0.0000  <S**2>=2.000
      57 -> 59        -0.10670
      58 -> 59         0.68852
 This state for optimization and/or second-order correction.
 Total Energy, E(TD-HF/TD-DFT) =  -1126.43684279
 Copying the excited state density for this state as the 1-particle RhoCI density.

 Excited State   2:      Triplet-A      3.3026 eV  375.42 nm  f=0.0000  <S**2>=2.000
      53 -> 59        -0.12357
      57 -> 59         0.60913
      58 -> 59         0.12163
      58 -> 60         0.23817

 Excited State   3:      Triplet-A      3.4820 eV  356.07 nm  f=0.0000  <S**2>=2.000
      56 -> 59         0.66755

 Excited State   4:      Singlet-A      3.5075 eV  353.49 nm  f=0.0464  <S**2>=0.000
      56 -> 59         0.21435
      57 -> 59         0.13693
      58 -> 59         0.65089

 Excited State   5:      Singlet-A      3.9666 eV  312.57 nm  f=0.0238  <S**2>=0.000
      56 -> 59         0.63159
      57 -> 59         0.13404
      58 -> 59        -0.23515

 Excited State   6:      Singlet-A      4.6913 eV  264.28 nm  f=0.2115  <S**2>=0.000
      56 -> 59        -0.16769
      57 -> 59         0.62463
      58 -> 60         0.24000

 The electronic state is 1-A.
 Alpha  occ. eigenvalues -- -101.57222 -19.22083 -19.17087 -19.16546 -14.38541
 Alpha  occ. eigenvalues --  -10.34942 -10.30991 -10.28730 -10.27238 -10.27104
 Alpha  occ. eigenvalues --  -10.26038 -10.23362 -10.22782 -10.22375 -10.22062
 Alpha  occ. eigenvalues --   -9.48733  -7.25142  -7.24178  -7.24124  -1.12676
 Alpha  occ. eigenvalues --   -1.06907  -1.04655  -0.98937  -0.91201  -0.85641
 Alpha  occ. eigenvalues --   -0.79976  -0.77398  -0.75877  -0.74471  -0.67002
 Alpha  occ. eigenvalues --   -0.63342  -0.59929  -0.58349  -0.56230  -0.53693
 Alpha  occ. eigenvalues --   -0.52252  -0.51759  -0.49496  -0.49245  -0.47118
 Alpha  occ. eigenvalues --   -0.46743  -0.45927  -0.44936  -0.44027  -0.42805
 Alpha  occ. eigenvalues --   -0.42159  -0.41200  -0.40625  -0.38976  -0.37737
 Alpha  occ. eigenvalues --   -0.36351  -0.33328  -0.32752  -0.32181  -0.30306
 Alpha  occ. eigenvalues --   -0.28233  -0.27699  -0.24446
 Alpha virt. eigenvalues --   -0.08977  -0.03210  -0.02867  -0.00892  -0.00257
 Alpha virt. eigenvalues --    0.00305   0.00706   0.01187   0.02225   0.02487
 Alpha virt. eigenvalues --    0.03362   0.03715   0.04968   0.05266   0.05909

 Mulliken charges:
               1
     1  C   -0.187758
     2  O   -0.268880
     3  C    0.410518
     4  O   -0.394393
     5  C   -0.444693
     6  N   -0.237043
     7  C   -1.662868
     8  C   -0.088198
     9  C   -0.108670
    10  Cl   0.279074
    11  C   -0.185104
    12  C    0.092349
    13  C    1.234581
    14  C    0.549807
    15  O   -0.466019
    16  H    0.164473
    17  H    0.144719
    18  H    0.200264
    19  H    0.186563
    20  H    0.323027
    21  H    0.147925
    22  H    0.149689
    23  H    0.160638
 Sum of Mulliken charges =  -0.00000

 Dipole moment (field-independent basis, Debye):
    X=             -0.2694    Y=              0.6090    Z=              2.7908  Tot=              2.8692
 Quadrupole moment (field-independent basis, Debye-Ang):
   XX=            -89.3364   YY=            -96.5717   ZZ=            -96.9288
   XY=             -1.3633   XZ=            -10.4603   YZ=             -5.4682

 Normal termination of Gaussian 16 at Sun Sep 21 18:55:02 2025.
