 Gaussian 16, Revision C.02,
 Gaussian 16:  ES64L-G16RevC.02  7-Dec-2021

 ----------------------------------------------------------
 # td=(50-50,nstates=3) b3lyp/6-31+g(d,p) geom=connectivity
 ----------------------------------------------------------

 -------------------
 Title Card Required
 -------------------
 Symbolic Z-matrix:
 Charge =  0 Multiplicity = 1

                         Standard orientation:
 ---------------------------------------------------------------------
 Center     Atomic      Atomic             Coordinates (Angstroms)
 Number     Number       Type             X           Y           Z
 ---------------------------------------------------------------------
      1          6           0        3.101403    0.304689   -0.928160
      2          7           0        2.019842   -0.283533   -0.147041
      3          6           0        2.303625   -0.636900    1.235927
      4          7           0        0.800176    0.155097   -0.503749
      5          6           0       -0.214866    0.047434    0.280735
      6          6           0       -1.548096    0.509402   -0.240355
      7          6           0       -2.512029   -0.619094   -0.303869
      8          7           0       -3.279576   -1.489732   -0.358740
      9          8           0       -2.039312    1.532019    0.629708
     10          1           0        2.751816    0.431628   -1.953315
     11          1           0        3.412466    1.285538   -0.535965
     12          1           0        3.963369   -0.368262   -0.922204
     13          1           0        1.677723   -1.477711    1.552435
     14          1           0        3.347929   -0.944132    1.309754
     15          1           0        2.129162    0.208564    1.921623
     16          1           0       -0.194334   -0.359541    1.291416
     17          1           0       -1.400680    0.883099   -1.261976
     18          1           0       -2.936267    1.778654    0.361600
 ---------------------------------------------------------------------

 SCF Done:  E(RB3LYP) =  -435.378872636     A.U. after   14 cycles

 Excitation energies and oscillator strengths:

 Excited State   1:      Triplet-A      3.2557 eV  380.82 nm  f=0.0000  <S**2>=2.000
      34 -> 35         0.63891
      34 -> 36         0.13613
      34 -> 37        -0.17221
      34 -> 40        -0.16684
 This state for optimization and/or second-order correction.
 Total Energy, E(TD-HF/TD-DFT) =  -435.259226650
 Copying the excited state density for this state as the 1-particle RhoCI density.

 Excited State   2:      Triplet-A      4.8497 eV  255.66 nm  f=0.0000  <S**2>=2.000
      33 -> 35         0.64504
      33 -> 36         0.12620
      33 -> 37        -0.17006
      33 -> 40        -0.15839

 Excited State   3:      Singlet-A      5.0074 eV  247.60 nm  f=0.3250  <S**2>=0.000
      34 -> 35         0.68388
      34 -> 37         0.14342

 Excited State   4:      Triplet-A      5.2713 eV  235.21 nm  f=0.0000  <S**2>=2.000
      34 -> 35        -0.19060
      34 -> 36         0.65078

 Excited State   5:      Singlet-A      5.3831 eV  230.32 nm  f=0.0201  <S**2>=0.000
      34 -> 36         0.67670
      34 -> 37         0.18326

 Excited State   6:      Singlet-A      5.7130 eV  217.02 nm  f=0.0533  <S**2>=0.000
      33 -> 35        -0.22910
      34 -> 35        -0.11299
      34 -> 36        -0.16545
      34 -> 37         0.62061
      34 -> 40        -0.11525

 The electronic state is 1-A.
 Alpha  occ. eigenvalues --  -19.18774 -14.40323 -14.39186 -14.35287 -10.29875
 Alpha  occ. eigenvalues --  -10.24041 -10.23679 -10.23561 -10.23010  -1.05911
 Alpha  occ. eigenvalues --   -1.03517  -0.91650  -0.86993  -0.77108  -0.74652
 Alpha  occ. eigenvalues --   -0.67952  -0.59244  -0.56399  -0.55498  -0.50779
 Alpha  occ. eigenvalues --   -0.49415  -0.49077  -0.45069  -0.42647  -0.42241
 Alpha  occ. eigenvalues --   -0.40220  -0.39783  -0.37566  -0.37127  -0.35120
 Alpha  occ. eigenvalues --   -0.34012  -0.31305  -0.29630  -0.23453
 Alpha virt. eigenvalues --   -0.03732  -0.00848   0.00015   0.01419   0.01678
 Alpha virt. eigenvalues --    0.02623   0.03232   0.03740   0.04372   0.04409
 Alpha virt. eigenvalues --    0.05400   0.06625   0.07024   0.07915   0.08669

 Mulliken charges:
               1
     1  C   -0.339939
     2  N    0.121558
     3  C   -0.351311
     4  N   -0.165671
     5  C   -0.165248
     6  C   -0.008676
     7  C    0.298093
     8  N   -0.514782
     9  O   -0.462694
    10  H    0.169666
    11  H    0.143418
    12  H    0.147529
    13  H    0.155529
    14  H    0.153109
    15  H    0.158248
    16  H    0.133353
    17  H    0.178066
    18  H    0.349751
 Sum of Mulliken charges =  -0.00000

 Dipole moment (field-independent basis, Debye):
    X=              3.9227    Y=              1.6816    Z=              0.4645  Tot=              4.2931
 Quadrupole moment (field-independent basis, Debye-Ang):
   XX=            -52.5102   YY=            -59.8632   ZZ=            -54.0713
   XY=            -11.1002   XZ=              1.8602   YZ=             -4.2867

 Normal termination of Gaussian 16 at Wed Aug 27 10:22:22 2025.
