 Gaussian 16, Revision C.02,
 Gaussian 16:  ES64L-G16RevC.02  7-Dec-2021

 ----------------------------------------------------------
 # td=(50-50,nstates=3) b3lyp/6-31+g(d,p) geom=connectivity
 ----------------------------------------------------------

 -------------------
 Title Card Required
 -------------------
 Symbolic Z-matrix:
 Charge =  0 Multiplicity = 1

                         Standard orientation:
 ---------------------------------------------------------------------
 Center     Atomic      Atomic             Coordinates (Angstroms)
 Number     Number       Type             X           Y           Z
 ---------------------------------------------------------------------
      1          6           0        5.832324   -1.153638   -0.000587
      2          8           0        5.612011    0.271766   -0.000164
      3          6           0        4.371840    0.768563    0.000148
      4          8           0        4.135826    1.952183    0.000615
      5          8           0        3.424809   -0.206826    0.000160
      6          6           0        2.065919    0.272622    0.000625
      7          6           0        1.172788   -0.927218    0.000573
      8          6           0       -0.176339   -0.892750    0.000366
      9          6           0       -1.063190   -2.040455    0.000371
     10          6           0       -2.382915   -1.733787    0.000128
     11          6           0       -2.649137   -0.311676   -0.000080
     12          6           0       -3.896647    0.280190   -0.000338
     13          6           0       -4.053170    1.697451   -0.000537
     14          7           0       -4.155294    2.858200   -0.000694
     15          6           0       -5.075030   -0.525513   -0.000410
     16          7           0       -6.023655   -1.202044   -0.000466
     17         16           0       -1.146723    0.609546    0.000044
     18          1           0        6.915810   -1.267263   -0.000784
     19          1           0        5.404688   -1.611613    0.894193
     20          1           0        5.404412   -1.611123   -0.895486
     21          1           0        1.906695    0.904686    0.883380
     22          1           0        1.906236    0.905124   -0.881729
     23          1           0        1.661446   -1.898347    0.000760
     24          1           0       -0.668584   -3.050777    0.000551
     25          1           0       -3.190330   -2.456227    0.000081
 ---------------------------------------------------------------------

 SCF Done:  E(RB3LYP) =  -1157.32074001     A.U. after   16 cycles

 Excitation energies and oscillator strengths:

 Excited State   1:      Triplet-A      1.4957 eV  828.92 nm  f=0.0000  <S**2>=2.000
      64 -> 65         0.71030
      64 <- 65         0.16660
 This state for optimization and/or second-order correction.
 Total Energy, E(TD-HF/TD-DFT) =  -1157.26577308
 Copying the excited state density for this state as the 1-particle RhoCI density.

 Excited State   2:      Triplet-A      3.3109 eV  374.47 nm  f=0.0000  <S**2>=2.000
      60 -> 65         0.11178
      63 -> 65         0.65023
      64 -> 65         0.10190
      64 -> 67        -0.16474

 Excited State   3:      Singlet-A      3.3668 eV  368.26 nm  f=0.6334  <S**2>=0.000
      63 -> 65         0.16525
      64 -> 65         0.68990
      64 <- 65        -0.11119

 Excited State   4:      Triplet-A      3.5158 eV  352.65 nm  f=0.0000  <S**2>=2.000
      58 -> 65        -0.12788
      60 -> 65         0.56997
      63 -> 65        -0.18533
      64 -> 67        -0.31449

 Excited State   5:      Singlet-A      4.1557 eV  298.35 nm  f=0.1585  <S**2>=0.000
      63 -> 65         0.68073
      64 -> 65        -0.16497

 Excited State   6:      Singlet-A      4.5339 eV  273.46 nm  f=0.0000  <S**2>=0.000
      62 -> 65         0.70609

 The electronic state is 1-A.
 Alpha  occ. eigenvalues --  -88.95610 -19.24121 -19.22988 -19.16541 -14.36677
 Alpha  occ. eigenvalues --  -14.36592 -10.39018 -10.30449 -10.29757 -10.29141
 Alpha  occ. eigenvalues --  -10.28362 -10.27294 -10.26455 -10.26212 -10.26068
 Alpha  occ. eigenvalues --  -10.25964 -10.25610  -8.01545  -5.98021  -5.97657
 Alpha  occ. eigenvalues --   -5.97121  -1.17327  -1.08726  -1.05156  -0.95007
 Alpha  occ. eigenvalues --   -0.93026  -0.92681  -0.86684  -0.83032  -0.79240
 Alpha  occ. eigenvalues --   -0.76904  -0.75086  -0.68957  -0.63679  -0.62271
 Alpha  occ. eigenvalues --   -0.61003  -0.58809  -0.57627  -0.55236  -0.54274
 Alpha  occ. eigenvalues --   -0.52086  -0.49817  -0.49365  -0.47447  -0.46127
 Alpha  occ. eigenvalues --   -0.45955  -0.45593  -0.43990  -0.42939  -0.41548
 Alpha  occ. eigenvalues --   -0.40976  -0.39317  -0.38965  -0.38539  -0.38326
 Alpha  occ. eigenvalues --   -0.36638  -0.36430  -0.35664  -0.35457  -0.33086
 Alpha  occ. eigenvalues --   -0.32805  -0.31821  -0.31276  -0.25357
 Alpha virt. eigenvalues --   -0.13297  -0.04309  -0.04143  -0.02426  -0.01127
 Alpha virt. eigenvalues --   -0.00883  -0.00736  -0.00185   0.00420   0.00825
 Alpha virt. eigenvalues --    0.01001   0.01380   0.01927   0.02627   0.02663

 Mulliken charges:
               1
     1  C   -0.175936
     2  O   -0.345863
     3  C    0.758579
     4  O   -0.472382
     5  O   -0.435250
     6  C   -0.221058
     7  C    0.056272
     8  C   -0.090902
     9  C    0.097174
    10  C    0.071213
    11  C    0.155271
    12  C    1.133518
    13  C   -0.306129
    14  N   -0.461113
    15  C   -0.360523
    16  N   -0.495050
    17  S   -0.269617
    18  H    0.163723
    19  H    0.160181
    20  H    0.160182
    21  H    0.191376
    22  H    0.191346
    23  H    0.163831
    24  H    0.155290
    25  H    0.175867
 Sum of Mulliken charges =  -0.00000

 Dipole moment (field-independent basis, Debye):
    X=              6.2747    Y=             -7.2144    Z=              0.0007  Tot=              9.5614
 Quadrupole moment (field-independent basis, Debye-Ang):
   XX=           -142.8591   YY=           -115.5569   ZZ=           -104.8727
   XY=            -13.5916   XZ=             -0.0099   YZ=             -0.0011

 Normal termination of Gaussian 16 at Mon Aug 11 12:27:55 2025.
