 Gaussian 16, Revision C.02,
 Gaussian 16:  ES64L-G16RevC.02  7-Dec-2021

 ----------------------------------------------------------
 # td=(50-50,nstates=3) b3lyp/6-31+g(d,p) geom=connectivity
 ----------------------------------------------------------

 -------------------
 Title Card Required
 -------------------
 Symbolic Z-matrix:
 Charge =  0 Multiplicity = 1

                         Standard orientation:
 ---------------------------------------------------------------------
 Center     Atomic      Atomic             Coordinates (Angstroms)
 Number     Number       Type             X           Y           Z
 ---------------------------------------------------------------------
      1          6           0       -3.394645   -0.941760   -0.884864
      2          7           0       -2.557803   -0.024311   -0.120455
      3          6           0       -2.940612    0.281529    1.249901
      4          7           0       -1.277225    0.002331   -0.499690
      5          6           0       -0.353140    0.501451    0.251024
      6          6           0        1.040018    0.507715   -0.309645
      7          6           0        1.650751    1.849724   -0.260545
      8          7           0        2.093042    2.922561   -0.233730
      9          8           0        1.900876   -0.385216    0.445618
     10          6           0        2.364622   -1.494938   -0.184289
     11          8           0        3.024001   -2.322098    0.381596
     12          1           0       -3.016033   -0.977312   -1.906716
     13          1           0       -3.382719   -1.958880   -0.465238
     14          1           0       -4.424778   -0.575202   -0.895234
     15          1           0       -2.664511    1.310426    1.504222
     16          1           0       -4.023512    0.186886    1.339196
     17          1           0       -2.460921   -0.399803    1.970523
     18          1           0       -0.499118    0.910741    1.249339
     19          1           0        0.987839    0.184829   -1.356617
     20          1           0        2.076668   -1.549569   -1.249561
 ---------------------------------------------------------------------

 SCF Done:  E(RB3LYP) =  -548.711229661     A.U. after   14 cycles

 Excitation energies and oscillator strengths:

 Excited State   1:      Triplet-A      3.1659 eV  391.63 nm  f=0.0000  <S**2>=2.000
      41 -> 42         0.66944
      41 -> 48        -0.14603
 This state for optimization and/or second-order correction.
 Total Energy, E(TD-HF/TD-DFT) =  -548.594885685
 Copying the excited state density for this state as the 1-particle RhoCI density.

 Excited State   2:      Triplet-A      4.8429 eV  256.01 nm  f=0.0000  <S**2>=2.000
      38 -> 42        -0.11577
      39 -> 42         0.65445
      39 -> 48        -0.13381

 Excited State   3:      Triplet-A      4.9227 eV  251.86 nm  f=0.0000  <S**2>=2.000
      40 -> 42        -0.18987
      40 -> 43         0.51175
      41 -> 43        -0.40206

 Excited State   4:      Singlet-A      5.0308 eV  246.45 nm  f=0.3111  <S**2>=0.000
      41 -> 42         0.65358
      41 -> 43        -0.20188

 Excited State   5:      Singlet-A      5.2058 eV  238.17 nm  f=0.0812  <S**2>=0.000
      40 -> 43        -0.14576
      41 -> 42         0.19844
      41 -> 43         0.65336

 Excited State   6:      Singlet-A      5.5624 eV  222.90 nm  f=0.0422  <S**2>=0.000
      40 -> 43        -0.12817
      41 -> 44         0.68094

 The electronic state is 1-A.
 Alpha  occ. eigenvalues --  -19.23131 -19.17314 -14.41937 -14.40927 -14.36442
 Alpha  occ. eigenvalues --  -10.34424 -10.32235 -10.25286 -10.25000 -10.24889
 Alpha  occ. eigenvalues --  -10.24239  -1.13199  -1.05785  -1.05183  -0.92914
 Alpha  occ. eigenvalues --   -0.88600  -0.80332  -0.76069  -0.70310  -0.64944
 Alpha  occ. eigenvalues --   -0.59925  -0.58827  -0.56802  -0.54249  -0.51221
 Alpha  occ. eigenvalues --   -0.50465  -0.48055  -0.45953  -0.44450  -0.43908
 Alpha  occ. eigenvalues --   -0.43391  -0.41455  -0.40424  -0.39021  -0.38388
 Alpha  occ. eigenvalues --   -0.36350  -0.35398  -0.33670  -0.31161  -0.30665
 Alpha  occ. eigenvalues --   -0.24733
 Alpha virt. eigenvalues --   -0.05073  -0.03067  -0.01311  -0.00504   0.00366
 Alpha virt. eigenvalues --    0.01186   0.01490   0.02223   0.02627   0.03044
 Alpha virt. eigenvalues --    0.03673   0.04483   0.05405   0.06146   0.07030

 Mulliken charges:
               1
     1  C   -0.335213
     2  N    0.084240
     3  C   -0.340244
     4  N   -0.104296
     5  C   -0.117669
     6  C   -0.112301
     7  C    0.149141
     8  N   -0.490345
     9  O   -0.188433
    10  C    0.505011
    11  O   -0.420711
    12  H    0.170480
    13  H    0.148577
    14  H    0.152455
    15  H    0.159737
    16  H    0.158113
    17  H    0.162077
    18  H    0.139076
    19  H    0.171105
    20  H    0.109202
 Sum of Mulliken charges =  -0.00000

 Dipole moment (field-independent basis, Debye):
    X=             -6.7492    Y=             -1.2629    Z=             -0.9514  Tot=              6.9319
 Quadrupole moment (field-independent basis, Debye-Ang):
   XX=            -66.5205   YY=            -82.5692   ZZ=            -62.7627
   XY=              1.4064   XZ=             -8.0031   YZ=              5.4349

 Normal termination of Gaussian 16 at Wed Aug 27 21:01:02 2025.
