 Gaussian 16, Revision C.02,
 Gaussian 16:  ES64L-G16RevC.02  7-Dec-2021

 ----------------------------------------------------------
 # td=(50-50,nstates=3) b3lyp/6-31+g(d,p) geom=connectivity
 ----------------------------------------------------------

 -------------------
 Title Card Required
 -------------------
 Symbolic Z-matrix:
 Charge =  0 Multiplicity = 1

                         Standard orientation:
 ---------------------------------------------------------------------
 Center     Atomic      Atomic             Coordinates (Angstroms)
 Number     Number       Type             X           Y           Z
 ---------------------------------------------------------------------
      1          6           0       -4.592730   -2.476347    1.029680
      2          7           0       -4.241245   -1.516626   -0.009938
      3          6           0       -5.225939   -0.491471   -0.320500
      4          7           0       -2.920715   -1.224358   -0.037312
      5          6           0       -2.477589   -0.139820   -0.560082
      6          6           0       -0.964842    0.106303   -0.730537
      7          6           0       -0.717646   -0.197578   -2.160905
      8          7           0       -0.575485   -0.464312   -3.283057
      9          6           0       -0.121668   -0.943792    0.117348
     10          6           0       -0.227779   -0.769610    1.662748
     11          6           0        0.788466    0.121399    2.379005
     12          8           0        1.929068   -0.663934    2.700050
     13          6           0        2.976503    0.092366    3.282883
     14          6           0        1.314021   -1.150220   -0.347208
     15          6           0        1.753206   -2.506272   -0.556125
     16          6           0        3.030195   -2.739423   -0.931133
     17          8           0        3.932239   -1.756637   -1.120824
     18          6           0        3.591844   -0.401440   -0.933464
     19          8           0        4.466760    0.420845   -1.105516
     20          6           0        2.220881   -0.148258   -0.544131
     21          6           0       -0.686228    1.602923   -0.463058
     22          6           0        0.088037    2.382975   -1.333847
     23          6           0        0.320813    3.735198   -1.068418
     24          6           0       -0.226809    4.335767    0.066471
     25          6           0       -1.019954    3.574679    0.928812
     26          6           0       -1.252132    2.224125    0.661751
     27          1           0       -5.530550   -2.971838    0.764036
     28          1           0       -3.799559   -3.222564    1.091062
     29          1           0       -4.710106   -2.002003    2.017510
     30          1           0       -6.221484   -0.928803   -0.229357
     31          1           0       -5.154221    0.375438    0.358354
     32          1           0       -5.102644   -0.139775   -1.349595
     33          1           0       -3.110188    0.634137   -0.995835
     34          1           0       -0.643666   -1.879853   -0.092596
     35          1           0       -1.241754   -0.438833    1.897386
     36          1           0       -0.129130   -1.764556    2.110805
     37          1           0        0.341385    0.513624    3.308070
     38          1           0        1.084402    0.988997    1.773490
     39          1           0        3.787822   -0.602976    3.508116
     40          1           0        3.346572    0.864681    2.592537
     41          1           0        2.649475    0.577542    4.215904
     42          1           0        1.075147   -3.341269   -0.425495
     43          1           0        3.452787   -3.719817   -1.118988
     44          1           0        1.980074    0.895971   -0.405558
     45          1           0        0.511118    1.938525   -2.228801
     46          1           0        0.928739    4.315759   -1.755737
     47          1           0       -0.047455    5.386995    0.271216
     48          1           0       -1.465892    4.031648    1.807564
     49          1           0       -1.887191    1.654841    1.332623
 ---------------------------------------------------------------------

 SCF Done:  E(RB3LYP) =  -1165.86535137     A.U. after   17 cycles

 Excitation energies and oscillator strengths:

 Excited State   1:      Triplet-A      2.6378 eV  470.03 nm  f=0.0000  <S**2>=2.000
      93 -> 95         0.68466
      94 -> 95         0.11746
 This state for optimization and/or second-order correction.
 Total Energy, E(TD-HF/TD-DFT) =  -1165.76841387
 Copying the excited state density for this state as the 1-particle RhoCI density.

 Excited State   2:      Triplet-A      3.2925 eV  376.57 nm  f=0.0000  <S**2>=2.000
      94 -> 96         0.53263
      94 -> 98        -0.37462
      94 -> 99         0.14003

 Excited State   3:      Triplet-A      3.7008 eV  335.02 nm  f=0.0000  <S**2>=2.000
      89 -> 96         0.10334
      89 -> 98         0.10263
      90 -> 96         0.27171
      90 -> 97        -0.25183
      90 -> 98         0.21697
      91 -> 96        -0.14653
      91 -> 97        -0.38572
      91 -> 98        -0.18270
      92 -> 97        -0.15786
      94 -> 97         0.15175

 Excited State   4:      Singlet-A      4.1795 eV  296.65 nm  f=0.0011  <S**2>=0.000
      94 -> 95         0.69931

 Excited State   5:      Singlet-A      4.3247 eV  286.69 nm  f=0.0893  <S**2>=0.000
      93 -> 95         0.69218

 Excited State   6:      Singlet-A      4.5439 eV  272.86 nm  f=0.0006  <S**2>=0.000
      89 -> 95         0.59852
      90 -> 95        -0.12180
      91 -> 95         0.29948
      92 -> 95        -0.14268

 The electronic state is 1-A.
 Alpha  occ. eigenvalues --  -19.22409 -19.16143 -19.13144 -14.40531 -14.39252
 Alpha  occ. eigenvalues --  -14.34569 -10.31726 -10.27499 -10.27244 -10.24361
 Alpha  occ. eigenvalues --  -10.24183 -10.23986 -10.23715 -10.23713 -10.23409
 Alpha  occ. eigenvalues --  -10.23110 -10.23039 -10.22896 -10.21468 -10.21380
 Alpha  occ. eigenvalues --  -10.21228 -10.21124 -10.21051 -10.20844 -10.20490
 Alpha  occ. eigenvalues --  -10.20433  -1.11861  -1.04017  -1.03700  -1.02637
 Alpha  occ. eigenvalues --   -0.92178  -0.89027  -0.87170  -0.85805  -0.81894
 Alpha  occ. eigenvalues --   -0.78859  -0.77282  -0.76659  -0.75354  -0.74945
 Alpha  occ. eigenvalues --   -0.71720  -0.68676  -0.67441  -0.66397  -0.63150
 Alpha  occ. eigenvalues --   -0.62842  -0.61681  -0.59458  -0.57165  -0.55004
 Alpha  occ. eigenvalues --   -0.54489  -0.53931  -0.52760  -0.51452  -0.50100
 Alpha  occ. eigenvalues --   -0.49602  -0.49446  -0.48906  -0.48177  -0.47240
 Alpha  occ. eigenvalues --   -0.46800  -0.46612  -0.45799  -0.45097  -0.44173
 Alpha  occ. eigenvalues --   -0.43803  -0.43441  -0.42821  -0.42578  -0.42537
 Alpha  occ. eigenvalues --   -0.40946  -0.40445  -0.39982  -0.39159  -0.38476
 Alpha  occ. eigenvalues --   -0.38117  -0.37954  -0.37196  -0.36488  -0.36366
 Alpha  occ. eigenvalues --   -0.35932  -0.35491  -0.35043  -0.33803  -0.33202
 Alpha  occ. eigenvalues --   -0.32919  -0.31514  -0.29719  -0.27577  -0.27399
 Alpha  occ. eigenvalues --   -0.26995  -0.26357  -0.23703  -0.23642
 Alpha virt. eigenvalues --   -0.06431  -0.03851  -0.03610  -0.02455  -0.01409
 Alpha virt. eigenvalues --   -0.00310  -0.00057   0.00118   0.00815   0.01465
 Alpha virt. eigenvalues --    0.01559   0.02013   0.02405   0.02782   0.02900

 Mulliken charges:
               1
     1  C   -0.320092
     2  N    0.270577
     3  C   -0.268975
     4  N    0.001003
     5  C   -0.108035
     6  C   -0.796303
     7  C   -0.514875
     8  N   -0.267590
     9  C    0.174361
    10  C   -0.168798
    11  C   -0.471053
    12  O   -0.216625
    13  C   -0.111781
    14  C    0.161803
    15  C    0.320086
    16  C    0.022955
    17  O   -0.279543
    18  C    0.241229
    19  O   -0.452317
    20  C   -0.301224
    21  C    0.674004
    22  C   -0.031617
    23  C   -0.405904
    24  C   -0.057643
    25  C   -0.287900
    26  C   -0.042324
    27  H    0.149982
    28  H    0.166676
    29  H    0.140426
    30  H    0.155804
    31  H    0.152163
    32  H    0.157092
    33  H    0.127941
    34  H    0.154255
    35  H    0.145404
    36  H    0.163327
    37  H    0.118159
    38  H    0.133498
    39  H    0.141751
    40  H    0.139762
    41  H    0.120303
    42  H    0.131373
    43  H    0.148262
    44  H    0.139748
    45  H    0.145449
    46  H    0.134440
    47  H    0.130717
    48  H    0.126010
    49  H    0.114037
 Sum of Mulliken charges =  -0.00000

 Dipole moment (field-independent basis, Debye):
    X=             -7.4182    Y=              0.0302    Z=              5.2710  Tot=              9.1002
 Quadrupole moment (field-independent basis, Debye-Ang):
   XX=           -157.2348   YY=           -138.3529   ZZ=           -168.0589
   XY=             -2.2429   XZ=              1.8884   YZ=              0.8680

 Normal termination of Gaussian 16 at Wed Aug 27 10:20:07 2025.
