 Gaussian 16, Revision C.02,
 Gaussian 16:  ES64L-G16RevC.02  7-Dec-2021

 ----------------------------------------------------------
 # td=(50-50,nstates=3) b3lyp/6-31+g(d,p) geom=connectivity
 ----------------------------------------------------------

 -------------------
 Title Card Required
 -------------------
 Symbolic Z-matrix:
 Charge =  0 Multiplicity = 1

                         Standard orientation:
 ---------------------------------------------------------------------
 Center     Atomic      Atomic             Coordinates (Angstroms)
 Number     Number       Type             X           Y           Z
 ---------------------------------------------------------------------
      1          6           0        6.093002    1.618297    1.053770
      2          6           0        5.768161    0.245317    0.433389
      3          6           0        6.520204    0.137310   -0.915773
      4          6           0        6.286402   -0.851588    1.395486
      5          6           0        4.258191    0.053342    0.198085
      6          6           0        3.303588    1.024641    0.513970
      7          6           0        1.941721    0.802643    0.279512
      8          6           0        1.473636   -0.391044   -0.276636
      9          6           0        0.001053   -0.648881   -0.538837
     10          6           0       -0.950997    0.465830   -0.128335
     11          8           0       -2.277023    0.022140   -0.444759
     12          6           0       -3.307478    0.919881   -0.057877
     13          6           0       -3.229634    2.181068   -0.848351
     14          7           0       -3.170519    3.161759   -1.468524
     15          6           0       -4.637762    0.248425   -0.271609
     16          7           0       -5.401416    0.100492    0.753637
     17          7           0       -6.632088   -0.435243    0.648599
     18          6           0       -7.152934   -0.940037    1.913360
     19          6           0       -7.033477   -1.128918   -0.566033
     20          6           0        2.424329   -1.386682   -0.604058
     21          6           0        1.995288   -2.702989   -1.211651
     22          6           0        3.778954   -1.144253   -0.361739
     23          1           0        5.614213    1.748368    2.030335
     24          1           0        7.174532    1.707311    1.202212
     25          1           0        5.780215    2.443648    0.405172
     26          1           0        6.369027   -0.837747   -1.389015
     27          1           0        7.597672    0.270634   -0.762757
     28          1           0        6.177768    0.906100   -1.616869
     29          1           0        7.361681   -0.727590    1.570171
     30          1           0        5.775471   -0.796464    2.362888
     31          1           0        6.128386   -1.855977    0.990741
     32          1           0        3.600959    1.972797    0.946828
     33          1           0        1.245167    1.593223    0.541309
     34          1           0       -0.156235   -0.845840   -1.607737
     35          1           0       -0.312725   -1.565177   -0.021635
     36          1           0       -0.884042    0.669810    0.951093
     37          1           0       -0.730370    1.396325   -0.669473
     38          1           0       -3.223561    1.186120    1.005913
     39          1           0       -4.877229   -0.061743   -1.288470
     40          1           0       -6.828780   -0.267775    2.708574
     41          1           0       -8.245819   -0.954825    1.877584
     42          1           0       -6.790328   -1.955415    2.138412
     43          1           0       -7.031972   -0.441332   -1.418098
     44          1           0       -6.366859   -1.976292   -0.797391
     45          1           0       -8.049887   -1.503065   -0.433778
     46          1           0        1.311371   -3.252198   -0.552647
     47          1           0        1.468799   -2.559536   -2.163328
     48          1           0        2.859065   -3.345305   -1.403261
     49          1           0        4.484350   -1.928402   -0.624723
 ---------------------------------------------------------------------

 SCF Done:  E(RB3LYP) =  -941.656778469     A.U. after   16 cycles

 Excitation energies and oscillator strengths:

 Excited State   1:      Triplet-A      3.2831 eV  377.65 nm  f=0.0000  <S**2>=2.000
      82 -> 83         0.66716
 This state for optimization and/or second-order correction.
 Total Energy, E(TD-HF/TD-DFT) =  -941.536127881
 Copying the excited state density for this state as the 1-particle RhoCI density.

 Excited State   2:      Triplet-A      3.6682 eV  338.00 nm  f=0.0000  <S**2>=2.000
      80 -> 84         0.40377
      80 -> 85         0.18328
      81 -> 84        -0.24055
      81 -> 85         0.48112

 Excited State   3:      Triplet-A      4.4629 eV  277.81 nm  f=0.0000  <S**2>=2.000
      80 -> 85         0.30240
      81 -> 84         0.61205
      81 -> 85         0.14394

 Excited State   4:      Singlet-A      5.1297 eV  241.70 nm  f=0.3696  <S**2>=0.000
      82 -> 83         0.64923
      82 -> 86        -0.22877

 Excited State   5:      Singlet-A      5.1644 eV  240.08 nm  f=0.0030  <S**2>=0.000
      80 -> 84         0.17183
      80 -> 85        -0.35728
      81 -> 83        -0.32247
      81 -> 84         0.44569
      81 -> 85         0.19203

 Excited State   6:      Singlet-A      5.1791 eV  239.39 nm  f=0.0004  <S**2>=0.000
      80 -> 85        -0.18127
      81 -> 83         0.62711
      81 -> 84         0.22931
      81 -> 85         0.10052

 The electronic state is 1-A.
 Alpha  occ. eigenvalues --  -19.18083 -14.40095 -14.38953 -14.34773 -10.29341
 Alpha  occ. eigenvalues --  -10.24725 -10.23534 -10.23530 -10.23400 -10.22868
 Alpha  occ. eigenvalues --  -10.20844 -10.20063 -10.20010 -10.19790 -10.19530
 Alpha  occ. eigenvalues --  -10.19038 -10.18814 -10.18664 -10.18662 -10.17767
 Alpha  occ. eigenvalues --  -10.17735 -10.17729  -1.06231  -1.03280  -0.91200
 Alpha  occ. eigenvalues --   -0.86967  -0.86577  -0.82544  -0.79538  -0.76999
 Alpha  occ. eigenvalues --   -0.76022  -0.74500  -0.71578  -0.69366  -0.68662
 Alpha  occ. eigenvalues --   -0.67978  -0.67462  -0.64594  -0.59430  -0.59168
 Alpha  occ. eigenvalues --   -0.57699  -0.55631  -0.53970  -0.53808  -0.51552
 Alpha  occ. eigenvalues --   -0.50109  -0.49083  -0.48794  -0.47575  -0.47116
 Alpha  occ. eigenvalues --   -0.45353  -0.44619  -0.44031  -0.43584  -0.42695
 Alpha  occ. eigenvalues --   -0.42348  -0.42225  -0.42046  -0.40902  -0.40052
 Alpha  occ. eigenvalues --   -0.39504  -0.39480  -0.39127  -0.38411  -0.37650
 Alpha  occ. eigenvalues --   -0.37375  -0.36967  -0.36736  -0.36282  -0.35971
 Alpha  occ. eigenvalues --   -0.34851  -0.34417  -0.34087  -0.32993  -0.32877
 Alpha  occ. eigenvalues --   -0.32098  -0.31599  -0.29655  -0.28738  -0.24577
 Alpha  occ. eigenvalues --   -0.23526  -0.23269
 Alpha virt. eigenvalues --   -0.03026  -0.00937  -0.00614  -0.00399   0.00029
 Alpha virt. eigenvalues --    0.00533   0.00969   0.01550   0.01778   0.02509
 Alpha virt. eigenvalues --    0.02779   0.02999   0.03299   0.03435   0.03685

 Mulliken charges:
               1
     1  C   -0.457970
     2  C    0.491791
     3  C   -0.527584
     4  C   -0.528640
     5  C   -0.296731
     6  C   -0.655757
     7  C   -0.772932
     8  C    0.968677
     9  C   -0.548801
    10  C   -0.504481
    11  O   -0.204471
    12  C   -0.073478
    13  C    0.312973
    14  N   -0.509257
    15  C   -0.048503
    16  N   -0.118374
    17  N    0.099202
    18  C   -0.331148
    19  C   -0.320988
    20  C    0.746106
    21  C   -0.668180
    22  C    0.000166
    23  H    0.150536
    24  H    0.145555
    25  H    0.151476
    26  H    0.141158
    27  H    0.142626
    28  H    0.151796
    29  H    0.142675
    30  H    0.150775
    31  H    0.141065
    32  H    0.115983
    33  H    0.116137
    34  H    0.166266
    35  H    0.164902
    36  H    0.128784
    37  H    0.151198
    38  H    0.171753
    39  H    0.131606
    40  H    0.169029
    41  H    0.147395
    42  H    0.142276
    43  H    0.155467
    44  H    0.156864
    45  H    0.153074
    46  H    0.157514
    47  H    0.158965
    48  H    0.144199
    49  H    0.099304
 Sum of Mulliken charges =  -0.00000

 Dipole moment (field-independent basis, Debye):
    X=             -1.5083    Y=             -4.2020    Z=              1.5569  Tot=              4.7282
 Quadrupole moment (field-independent basis, Debye-Ang):
   XX=           -103.9206   YY=           -146.4294   ZZ=           -139.2056
   XY=             18.6708   XZ=             -4.7206   YZ=              8.9799

 Normal termination of Gaussian 16 at Wed Aug 27 10:16:19 2025.
