 Gaussian 16, Revision C.02,
 Gaussian 16:  ES64L-G16RevC.02  7-Dec-2021

 ----------------------------------------------------------
 # td=(50-50,nstates=3) b3lyp/6-31+g(d,p) geom=connectivity
 ----------------------------------------------------------

 -------------------
 Title Card Required
 -------------------
 Symbolic Z-matrix:
 Charge =  0 Multiplicity = 1

                         Standard orientation:
 ---------------------------------------------------------------------
 Center     Atomic      Atomic             Coordinates (Angstroms)
 Number     Number       Type             X           Y           Z
 ---------------------------------------------------------------------
      1          6           0        3.420884    3.350243    0.885472
      2          6           0        2.343432    2.502867    0.247548
      3          6           0        1.212311    3.085883   -0.333425
      4          6           0        0.212843    2.327311   -0.952174
      5          6           0       -0.983431    2.993048   -1.588312
      6          6           0        0.348084    0.923241   -0.976320
      7          7           0       -0.585093    0.130704   -1.678862
      8          6           0       -1.680259   -0.287076   -1.161159
      9          6           0       -2.654564   -1.121822   -1.994498
     10          7           0       -3.846177   -1.243774   -1.148435
     11          6           0       -3.550679   -0.790555    0.127890
     12          6           0       -4.355033   -0.871830    1.272302
     13          6           0       -3.877168   -0.302469    2.451650
     14          6           0       -2.629326    0.343403    2.506427
     15          6           0       -1.829695    0.420012    1.367457
     16          6           0       -2.286329   -0.156644    0.172529
     17          6           0        1.493025    0.309265   -0.421373
     18          6           0        1.590808   -1.199968   -0.539818
     19          6           0        2.955463   -1.828480   -0.133486
     20          6           0        3.187187   -1.819355    1.324134
     21          7           0        3.363206   -1.805044    2.470851
     22          6           0        3.048429   -3.211826   -0.636606
     23          7           0        3.104661   -4.288139   -1.066125
     24          6           0        2.464327    1.108845    0.190272
     25          1           0        3.006082    4.271732    1.305819
     26          1           0        3.928689    2.811487    1.691600
     27          1           0        4.185110    3.641138    0.153267
     28          1           0        1.102110    4.168209   -0.309258
     29          1           0       -0.866044    4.080067   -1.590895
     30          1           0       -1.115916    2.656692   -2.622868
     31          1           0       -1.912314    2.758535   -1.055097
     32          1           0       -2.877813   -0.627574   -2.944728
     33          1           0       -2.207636   -2.100587   -2.214764
     34          1           0       -4.434999   -2.058076   -1.252081
     35          1           0       -5.325089   -1.359054    1.239998
     36          1           0       -4.487125   -0.358173    3.348975
     37          1           0       -2.286228    0.778218    3.439376
     38          1           0       -0.863554    0.909770    1.407988
     39          1           0        0.806217   -1.691625    0.046529
     40          1           0        1.404389   -1.478778   -1.583102
     41          1           0        3.768324   -1.257670   -0.603044
     42          1           0        3.337766    0.654914    0.649216
 ---------------------------------------------------------------------

 SCF Done:  E(RB3LYP) =  -991.997292115     A.U. after   16 cycles

 Excitation energies and oscillator strengths:

 Excited State   1:      Triplet-A      2.6952 eV  460.02 nm  f=0.0000  <S**2>=2.000
      80 -> 84         0.16566
      82 -> 84         0.51804
      83 -> 84         0.43297
 This state for optimization and/or second-order correction.
 Total Energy, E(TD-HF/TD-DFT) =  -991.898246216
 Copying the excited state density for this state as the 1-particle RhoCI density.

 Excited State   2:      Triplet-A      2.9775 eV  416.41 nm  f=0.0000  <S**2>=2.000
      79 -> 84         0.13600
      82 -> 84        -0.44115
      83 -> 84         0.51599

 Excited State   3:      Singlet-A      3.2470 eV  381.85 nm  f=0.0065  <S**2>=0.000
      82 -> 84        -0.33154
      83 -> 84         0.61673

 Excited State   4:      Triplet-A      3.3890 eV  365.85 nm  f=0.0000  <S**2>=2.000
      80 -> 84         0.55552
      82 -> 84        -0.14053
      82 -> 86         0.11071
      82 -> 87         0.17995
      82 -> 88         0.16394
      83 -> 84        -0.11978
      83 -> 87         0.10928

 Excited State   5:      Singlet-A      3.5665 eV  347.64 nm  f=0.1590  <S**2>=0.000
      82 -> 84         0.61112
      83 -> 84         0.32894

 Excited State   6:      Singlet-A      4.3131 eV  287.46 nm  f=0.0001  <S**2>=0.000
      81 -> 84         0.70342

 The electronic state is 1-A.
 Alpha  occ. eigenvalues --  -14.37599 -14.36631 -14.36585 -14.34484 -10.30194
 Alpha  occ. eigenvalues --  -10.26569 -10.25951 -10.25884 -10.25502 -10.24569
 Alpha  occ. eigenvalues --  -10.23465 -10.23150 -10.21772 -10.21502 -10.21497
 Alpha  occ. eigenvalues --  -10.21263 -10.21059 -10.20666 -10.20483 -10.20362
 Alpha  occ. eigenvalues --  -10.19940 -10.19427 -10.19073 -10.18884  -0.98380
 Alpha  occ. eigenvalues --   -0.94513  -0.94116  -0.92763  -0.87207  -0.86279
 Alpha  occ. eigenvalues --   -0.85103  -0.79768  -0.78572  -0.77372  -0.75887
 Alpha  occ. eigenvalues --   -0.73633  -0.70958  -0.69351  -0.68298  -0.64748
 Alpha  occ. eigenvalues --   -0.61692  -0.60775  -0.59565  -0.58950  -0.56792
 Alpha  occ. eigenvalues --   -0.55306  -0.53728  -0.52045  -0.50313  -0.49868
 Alpha  occ. eigenvalues --   -0.48455  -0.47277  -0.46033  -0.45956  -0.45133
 Alpha  occ. eigenvalues --   -0.44270  -0.43777  -0.43386  -0.42603  -0.42090
 Alpha  occ. eigenvalues --   -0.41507  -0.41218  -0.40407  -0.39523  -0.39167
 Alpha  occ. eigenvalues --   -0.38715  -0.38574  -0.38512  -0.37059  -0.36986
 Alpha  occ. eigenvalues --   -0.36397  -0.36129  -0.35736  -0.35164  -0.34666
 Alpha  occ. eigenvalues --   -0.34320  -0.33406  -0.31749  -0.29745  -0.26916
 Alpha  occ. eigenvalues --   -0.25352  -0.22375  -0.22104
 Alpha virt. eigenvalues --   -0.07025  -0.02469  -0.02131  -0.01720  -0.01505
 Alpha virt. eigenvalues --   -0.01060  -0.00821   0.00164   0.00414   0.00841
 Alpha virt. eigenvalues --    0.01134   0.01442   0.01752   0.02105   0.02572

 Mulliken charges:
               1
     1  C   -0.491058
     2  C    0.025168
     3  C   -0.470312
     4  C    0.564288
     5  C   -0.523185
     6  C    0.081588
     7  N   -0.071713
     8  C   -0.164697
     9  C   -0.756431
    10  N   -0.346637
    11  C   -0.434803
    12  C   -0.425758
    13  C   -0.048663
    14  C   -0.518228
    15  C   -0.263963
    16  C    1.524748
    17  C    0.326562
    18  C   -0.156635
    19  C    0.447880
    20  C    0.003581
    21  N   -0.397937
    22  C    0.009115
    23  N   -0.455432
    24  C   -0.406899
    25  H    0.152931
    26  H    0.156321
    27  H    0.165067
    28  H    0.113016
    29  H    0.139693
    30  H    0.168003
    31  H    0.164405
    32  H    0.170884
    33  H    0.166484
    34  H    0.299242
    35  H    0.124320
    36  H    0.130869
    37  H    0.132046
    38  H    0.148925
    39  H    0.185617
    40  H    0.195069
    41  H    0.227733
    42  H    0.108796
 Sum of Mulliken charges =  -0.00000

 Dipole moment (field-independent basis, Debye):
    X=             -4.3752    Y=              2.6664    Z=             -1.3307  Tot=              5.2937
 Quadrupole moment (field-independent basis, Debye-Ang):
   XX=           -131.9229   YY=           -153.7764   ZZ=           -149.1530
   XY=             23.9500   XZ=             -5.0095   YZ=              4.2051

 Normal termination of Gaussian 16 at Wed Aug 27 10:30:35 2025.
