 Gaussian 16, Revision C.02,
 Gaussian 16:  ES64L-G16RevC.02  7-Dec-2021

 ----------------------------------------------------------
 # td=(50-50,nstates=3) b3lyp/6-31+g(d,p) geom=connectivity
 ----------------------------------------------------------

 -------------------
 Title Card Required
 -------------------
 Symbolic Z-matrix:
 Charge =  0 Multiplicity = 1

                         Standard orientation:
 ---------------------------------------------------------------------
 Center     Atomic      Atomic             Coordinates (Angstroms)
 Number     Number       Type             X           Y           Z
 ---------------------------------------------------------------------
      1          6           0        3.842439    2.142265    0.478853
      2          6           0        2.787424    1.682039    1.429848
      3          7           0        2.059905    0.597938    1.332443
      4          8           0        1.075984    0.324614    2.130319
      5          6           0        2.279208   -0.404387    0.297937
      6          6           0        3.530346   -1.001777    0.172971
      7          6           0        3.731584   -2.009554   -0.773278
      8          6           0        2.676760   -2.413020   -1.589901
      9          6           0        1.417148   -1.826564   -1.445307
     10          6           0        1.190025   -0.828136   -0.488402
     11          6           0       -0.164397   -0.235953   -0.325016
     12          6           0       -1.294143   -0.955755   -0.022325
     13          7           0       -1.178544   -2.422720    0.172125
     14          8           0       -0.849151   -2.821333    1.279016
     15          8           0       -1.432888   -3.121682   -0.807599
     16          6           0       -2.605752   -0.381230    0.160263
     17         17           0       -3.934182   -1.419716    0.593278
     18          6           0       -2.816960    0.963653    0.016236
     19          6           0       -1.682304    1.728442   -0.336894
     20          6           0       -0.385281    1.172656   -0.516252
     21          7           0        0.492914    2.093094   -0.882656
     22          8           0       -0.199054    3.272754   -0.937206
     23          7           0       -1.587190    3.042189   -0.590318
     24          8           0       -2.371400    3.983665   -0.585534
     25          1           0        3.702518    3.212568    0.291137
     26          1           0        4.849046    2.022618    0.902025
     27          1           0        3.805959    1.622542   -0.479227
     28          1           0        2.514556    2.295422    2.282457
     29          1           0        4.336227   -0.694136    0.830311
     30          1           0        4.706781   -2.477834   -0.861692
     31          1           0        2.823464   -3.190521   -2.332673
     32          1           0        0.598090   -2.147352   -2.079537
     33          1           0       -3.789654    1.418148    0.155971
 ---------------------------------------------------------------------

 SCF Done:  E(RB3LYP) =  -1593.93831492     A.U. after   19 cycles

 Excitation energies and oscillator strengths:

 Excited State   1:      Triplet-A      1.2123 eV 1022.69 nm  f=0.0000  <S**2>=2.000
      87 -> 90         0.13257
      88 -> 90         0.59231
      89 -> 90        -0.37309
      88 <- 90         0.19650
 This state for optimization and/or second-order correction.
 Total Energy, E(TD-HF/TD-DFT) =  -1593.89376238
 Copying the excited state density for this state as the 1-particle RhoCI density.

 Excited State   2:      Triplet-A      1.9807 eV  625.97 nm  f=0.0000  <S**2>=2.000
      88 -> 90         0.18187
      88 -> 92         0.12517
      89 -> 90         0.29461
      89 -> 92         0.49679
      89 -> 93        -0.16094
      89 -> 95         0.17958
      89 -> 96         0.22435
      89 <- 92         0.11560

 Excited State   3:      Triplet-A      2.3091 eV  536.93 nm  f=0.0000  <S**2>=2.000
      88 -> 90         0.29376
      89 -> 90         0.52694
      89 -> 92        -0.26546
      89 -> 93         0.11560
      89 -> 95        -0.11696
      89 -> 96        -0.11484

 Excited State   4:      Singlet-A      2.3198 eV  534.46 nm  f=0.0322  <S**2>=0.000
      88 -> 90         0.14133
      89 -> 90         0.69145

 Excited State   5:      Singlet-A      2.8003 eV  442.76 nm  f=0.0002  <S**2>=0.000
      89 -> 91         0.69260

 Excited State   6:      Singlet-A      2.8749 eV  431.26 nm  f=0.0070  <S**2>=0.000
      87 -> 90         0.63136
      88 -> 90        -0.29314

 The electronic state is 1-A.
 Alpha  occ. eigenvalues -- -101.59069 -19.30525 -19.22418 -19.22190 -19.21425
 Alpha  occ. eigenvalues --  -19.13745 -14.60579 -14.57123 -14.49195 -14.43676
 Alpha  occ. eigenvalues --  -10.31207 -10.30147 -10.29238 -10.28662 -10.27825
 Alpha  occ. eigenvalues --  -10.27318 -10.26092 -10.25566 -10.25437 -10.23558
 Alpha  occ. eigenvalues --  -10.23313 -10.23282 -10.22983 -10.21879  -9.50520
 Alpha  occ. eigenvalues --   -7.26978  -7.25936  -7.25901  -1.26259  -1.24376
 Alpha  occ. eigenvalues --   -1.14569  -1.11306  -1.09128  -0.96265  -0.92040
 Alpha  occ. eigenvalues --   -0.91775  -0.90521  -0.88022  -0.86660  -0.81876
 Alpha  occ. eigenvalues --   -0.80395  -0.79577  -0.76374  -0.74536  -0.69765
 Alpha  occ. eigenvalues --   -0.68004  -0.66976  -0.66629  -0.63498  -0.60072
 Alpha  occ. eigenvalues --   -0.59462  -0.58662  -0.56313  -0.56090  -0.54297
 Alpha  occ. eigenvalues --   -0.54229  -0.54024  -0.52410  -0.52380  -0.51061
 Alpha  occ. eigenvalues --   -0.50149  -0.48974  -0.48276  -0.47148  -0.46428
 Alpha  occ. eigenvalues --   -0.45902  -0.45022  -0.44184  -0.44050  -0.42902
 Alpha  occ. eigenvalues --   -0.42747  -0.41508  -0.40479  -0.39708  -0.39090
 Alpha  occ. eigenvalues --   -0.38632  -0.37847  -0.35275  -0.35077  -0.34279
 Alpha  occ. eigenvalues --   -0.33688  -0.32278  -0.32169  -0.30776  -0.29584
 Alpha  occ. eigenvalues --   -0.29062  -0.25911  -0.25112  -0.23193
 Alpha virt. eigenvalues --   -0.12548  -0.10562  -0.07149  -0.05593  -0.03887
 Alpha virt. eigenvalues --   -0.03343  -0.02430  -0.01853  -0.01154   0.00082
 Alpha virt. eigenvalues --    0.00330   0.01210   0.01566   0.02136   0.02698

 Mulliken charges:
               1
     1  C   -0.486173
     2  C    0.141143
     3  N   -0.155948
     4  O   -0.128661
     5  C   -0.345782
     6  C   -0.312885
     7  C   -0.299094
     8  C   -0.021808
     9  C   -0.710448
    10  C    0.878420
    11  C    0.898103
    12  C    0.220498
    13  N   -0.372816
    14  O    0.047538
    15  O    0.041383
    16  C   -0.039376
    17  Cl   0.325445
    18  C    0.604153
    19  C   -0.284874
    20  C   -0.823746
    21  N   -0.464884
    22  O    0.441142
    23  N   -0.643190
    24  O    0.047474
    25  H    0.172097
    26  H    0.167730
    27  H    0.177703
    28  H    0.160450
    29  H    0.146470
    30  H    0.140701
    31  H    0.141872
    32  H    0.155870
    33  H    0.181492
 Sum of Mulliken charges =  -0.00000

 Dipole moment (field-independent basis, Debye):
    X=              4.3493    Y=              0.3142    Z=             -2.2833  Tot=              4.9222
 Quadrupole moment (field-independent basis, Debye-Ang):
   XX=           -118.1366   YY=           -160.0940   ZZ=           -150.6886
   XY=              0.4077   XZ=             -1.1613   YZ=             10.2437

 Normal termination of Gaussian 16 at Sun Sep 21 19:10:09 2025.
