 Gaussian 16, Revision C.02,
 Gaussian 16:  ES64L-G16RevC.02  7-Dec-2021

 ----------------------------------------------------------
 # td=(50-50,nstates=3) b3lyp/6-31+g(d,p) geom=connectivity
 ----------------------------------------------------------

 -------------------
 Title Card Required
 -------------------
 Symbolic Z-matrix:
 Charge =  0 Multiplicity = 1

                         Standard orientation:
 ---------------------------------------------------------------------
 Center     Atomic      Atomic             Coordinates (Angstroms)
 Number     Number       Type             X           Y           Z
 ---------------------------------------------------------------------
      1          6           0       -5.724570    0.894518   -2.295484
      2          6           0       -5.046750    0.829809   -1.127496
      3          6           0       -5.225130    1.813399   -0.092210
      4          7           0       -5.360088    2.591757    0.760807
      5          6           0       -4.109493   -0.234843   -0.853515
      6          6           0       -3.251261   -0.657315    0.107822
      7          6           0       -2.717361   -0.232473    1.446814
      8          6           0       -2.996419   -1.281971    2.536424
      9          7           0       -1.294937    0.116692    1.359623
     10          6           0       -0.288370   -0.781886    1.205207
     11          6           0        0.972594   -0.395845    0.845306
     12          7           0        2.112948   -1.229308    0.724299
     13          6           0        3.171277   -0.455946    0.277197
     14          6           0        4.470044   -0.862418   -0.052863
     15          6           0        5.360154    0.135201   -0.439476
     16         17           0        7.003298   -0.328654   -0.863031
     17          6           0        5.010835    1.498027   -0.504382
     18          6           0        3.713337    1.880715   -0.179618
     19          6           0        2.788288    0.904346    0.202538
     20          6           0        1.370253    0.985906    0.560926
     21          8           0        0.622611    1.983649    0.626243
     22          6           0       -2.950895   -1.788998   -0.816405
     23          8           0       -2.290675   -2.771361   -0.919983
     24          8           0       -3.896971   -1.270636   -1.796718
     25          1           0       -5.570346    0.135150   -3.053647
     26          1           0       -6.424598    1.697671   -2.494126
     27          1           0       -3.227912    0.692601    1.728383
     28          1           0       -2.581053   -0.945303    3.490318
     29          1           0       -4.075567   -1.416983    2.650364
     30          1           0       -2.565440   -2.256639    2.289448
     31          1           0       -1.035566    1.077053    1.116063
     32          1           0       -0.523955   -1.827213    1.386115
     33          1           0        2.038732   -2.207876    0.485802
     34          1           0        4.781490   -1.900043   -0.005286
     35          1           0        5.752231    2.227657   -0.808065
     36          1           0        3.411546    2.922484   -0.227996
 ---------------------------------------------------------------------

 SCF Done:  E(RB3LYP) =  -1505.12992582     A.U. after   21 cycles

 Excitation energies and oscillator strengths:

 Excited State   1:      Triplet-A      1.3417 eV  924.05 nm  f=0.0000  <S**2>=2.000
      84 -> 89        -0.15502
      88 -> 89         0.67590
 This state for optimization and/or second-order correction.
 Total Energy, E(TD-HF/TD-DFT) =  -1505.08061776
 Copying the excited state density for this state as the 1-particle RhoCI density.

 Excited State   2:      Singlet-A      1.5260 eV  812.45 nm  f=0.0493  <S**2>=0.000
      88 -> 89         0.70571

 Excited State   3:      Triplet-A      1.8767 eV  660.63 nm  f=0.0000  <S**2>=2.000
      84 -> 89        -0.12149
      88 -> 90         0.67901

 Excited State   4:      Triplet-A      2.0681 eV  599.51 nm  f=0.0000  <S**2>=2.000
      80 -> 89        -0.13020
      84 -> 89         0.58499
      85 -> 89         0.18081
      86 -> 89        -0.12167
      87 -> 89        -0.17779
      88 -> 89         0.20020
      88 -> 90         0.12265
      84 <- 89         0.10450

 Excited State   5:      Singlet-A      2.7111 eV  457.32 nm  f=0.0241  <S**2>=0.000
      87 -> 89         0.69882

 Excited State   6:      Singlet-A      2.9227 eV  424.21 nm  f=0.0124  <S**2>=0.000
      86 -> 89         0.69785

 The electronic state is 1-A.
 Alpha  occ. eigenvalues -- -101.55789 -19.22335 -19.20952 -19.13189 -14.38613
 Alpha  occ. eigenvalues --  -14.38604 -14.38252 -10.36839 -10.32254 -10.29629
 Alpha  occ. eigenvalues --  -10.27968 -10.27355 -10.26900 -10.26887 -10.26804
 Alpha  occ. eigenvalues --  -10.26233 -10.25205 -10.25076 -10.23173 -10.21419
 Alpha  occ. eigenvalues --  -10.21402 -10.21330 -10.20589 -10.19902  -9.47298
 Alpha  occ. eigenvalues --   -7.23701  -7.22741  -7.22701  -1.14848  -1.09142
 Alpha  occ. eigenvalues --   -1.02647  -0.98365  -0.97018  -0.95013  -0.89524
 Alpha  occ. eigenvalues --   -0.87788  -0.84514  -0.83669  -0.79360  -0.77544
 Alpha  occ. eigenvalues --   -0.75764  -0.74307  -0.71910  -0.68891  -0.66989
 Alpha  occ. eigenvalues --   -0.65723  -0.62508  -0.60928  -0.57992  -0.56519
 Alpha  occ. eigenvalues --   -0.56007  -0.55113  -0.54415  -0.52306  -0.51268
 Alpha  occ. eigenvalues --   -0.51017  -0.50427  -0.48798  -0.47815  -0.47149
 Alpha  occ. eigenvalues --   -0.46336  -0.45443  -0.45112  -0.44590  -0.43947
 Alpha  occ. eigenvalues --   -0.43312  -0.43223  -0.42881  -0.41988  -0.40706
 Alpha  occ. eigenvalues --   -0.40188  -0.39722  -0.39441  -0.39217  -0.39061
 Alpha  occ. eigenvalues --   -0.37364  -0.37229  -0.36058  -0.35674  -0.33178
 Alpha  occ. eigenvalues --   -0.32854  -0.32017  -0.31978  -0.28034  -0.26694
 Alpha  occ. eigenvalues --   -0.25532  -0.24395  -0.20216
 Alpha virt. eigenvalues --   -0.12982  -0.07568  -0.05642  -0.02443  -0.01862
 Alpha virt. eigenvalues --   -0.01136  -0.00574   0.00012   0.00145   0.00651
 Alpha virt. eigenvalues --    0.01030   0.01501   0.01694   0.02097   0.02650

 Mulliken charges:
               1
     1  C   -0.084938
     2  C    1.107969
     3  C   -0.871534
     4  N   -0.465562
     5  C    0.074755
     6  C    0.383842
     7  C   -0.460174
     8  C   -0.390117
     9  N   -0.155067
    10  C   -0.378884
    11  C    0.084787
    12  N   -0.354406
    13  C   -1.331258
    14  C   -0.466626
    15  C    0.035016
    16  Cl   0.251134
    17  C   -0.212343
    18  C    0.376328
    19  C    0.935321
    20  C    0.483749
    21  O   -0.599302
    22  C    0.601225
    23  O   -0.414539
    24  O   -0.408909
    25  H    0.193751
    26  H    0.180197
    27  H    0.157625
    28  H    0.170604
    29  H    0.162116
    30  H    0.158227
    31  H    0.371781
    32  H    0.137230
    33  H    0.292780
    34  H    0.138016
    35  H    0.142704
    36  H    0.154501
 Sum of Mulliken charges =  -0.00000

 Dipole moment (field-independent basis, Debye):
    X=             -4.2174    Y=             -2.7848    Z=             -0.5815  Tot=              5.0872
 Quadrupole moment (field-independent basis, Debye-Ang):
   XX=           -140.1234   YY=           -154.4895   ZZ=           -143.3475
   XY=              0.9364   XZ=             10.6998   YZ=            -14.7499

 Normal termination of Gaussian 16 at Sun Sep 21 19:49:14 2025.
