 Gaussian 16, Revision C.02,
 Gaussian 16:  ES64L-G16RevC.02  7-Dec-2021

 ----------------------------------------------------------
 # td=(50-50,nstates=3) b3lyp/6-31+g(d,p) geom=connectivity
 ----------------------------------------------------------

 -------------------
 Title Card Required
 -------------------
 Symbolic Z-matrix:
 Charge =  0 Multiplicity = 1

                         Standard orientation:
 ---------------------------------------------------------------------
 Center     Atomic      Atomic             Coordinates (Angstroms)
 Number     Number       Type             X           Y           Z
 ---------------------------------------------------------------------
      1          6           0        6.571694   -0.717513   -0.000608
      2          6           0        5.364643    0.203812   -0.000684
      3          8           0        4.185016   -0.597216    0.000204
      4          6           0        2.997526    0.162462    0.000226
      5          6           0        1.817128   -0.792258    0.000226
      6          6           0        2.156822   -2.181182    0.000268
      7          7           0        2.377036   -3.326078    0.000201
      8          6           0        0.472720   -0.460406    0.000231
      9          6           0       -0.537337   -1.497341    0.000265
     10          6           0       -1.874116   -1.233497    0.000020
     11          8           0       -2.841921   -2.168544   -0.000022
     12          6           0       -2.487814   -3.553130    0.000273
     13          6           0       -2.363912    0.144116   -0.000179
     14          6           0       -3.718273    0.473704   -0.000221
     15          6           0       -4.103805    1.850996   -0.000296
     16          7           0       -4.391777    2.980641   -0.000219
     17          6           0       -4.819131   -0.435966   -0.000243
     18          7           0       -5.790897   -1.079329   -0.000279
     19          6           0       -1.369999    1.180691   -0.000215
     20          6           0       -0.028157    0.918795    0.000099
     21          8           0        0.919755    1.880160    0.000273
     22          6           0        0.524079    3.268932    0.000151
     23          6           0        1.785204    4.111331    0.000537
     24          1           0        7.494151   -0.127490   -0.001329
     25          1           0        6.568180   -1.357316    0.886582
     26          1           0        6.567470   -1.358384   -0.887023
     27          1           0        5.368001    0.854021   -0.890729
     28          1           0        5.368680    0.855037    0.888616
     29          1           0        2.950077    0.816996    0.883839
     30          1           0        2.950059    0.817042   -0.883352
     31          1           0       -0.194085   -2.522575    0.000415
     32          1           0       -1.912417   -3.807074    0.897474
     33          1           0       -3.434803   -4.091534    0.000252
     34          1           0       -1.912266   -3.807412   -0.896753
     35          1           0       -1.722072    2.202562   -0.000471
     36          1           0       -0.085553    3.462539   -0.890537
     37          1           0       -0.086096    3.462538    0.890466
     38          1           0        1.512859    5.171269    0.000494
     39          1           0        2.390170    3.913302    0.890067
     40          1           0        2.390687    3.913363   -0.888655
 ---------------------------------------------------------------------

 SCF Done:  E(RB3LYP) =  -1047.91550825     A.U. after   17 cycles

 Excitation energies and oscillator strengths:

 Excited State   1:      Triplet-A      0.9263 eV 1338.50 nm  f=0.0000  <S**2>=2.000
      82 -> 83         0.74176
      82 <- 83         0.25610
 This state for optimization and/or second-order correction.
 Total Energy, E(TD-HF/TD-DFT) =  -1047.88146757
 Copying the excited state density for this state as the 1-particle RhoCI density.

 Excited State   2:      Triplet-A      2.0480 eV  605.40 nm  f=0.0000  <S**2>=2.000
      81 -> 83         0.69664

 Excited State   3:      Singlet-A      2.6964 eV  459.81 nm  f=0.0444  <S**2>=0.000
      81 -> 83         0.66709
      82 -> 83         0.21972

 Excited State   4:      Singlet-A      2.9445 eV  421.07 nm  f=0.8044  <S**2>=0.000
      80 -> 83         0.16081
      81 -> 83        -0.21305
      82 -> 83         0.66167
      82 <- 83        -0.13763

 Excited State   5:      Triplet-A      3.1888 eV  388.81 nm  f=0.0000  <S**2>=2.000
      79 -> 83         0.34362
      80 -> 83         0.57066
      82 -> 84        -0.21336

 Excited State   6:      Singlet-A      3.3981 eV  364.86 nm  f=0.0881  <S**2>=0.000
      80 -> 83         0.68610
      82 -> 83        -0.15465

 The electronic state is 1-A.
 Alpha  occ. eigenvalues --  -19.23595 -19.22337 -19.18189 -14.36125 -14.35986
 Alpha  occ. eigenvalues --  -14.34966 -10.31063 -10.30087 -10.28488 -10.28185
 Alpha  occ. eigenvalues --  -10.27606 -10.27567 -10.27506 -10.26721 -10.26621
 Alpha  occ. eigenvalues --  -10.25644 -10.25519 -10.25177 -10.24718 -10.23343
 Alpha  occ. eigenvalues --  -10.23102 -10.21852 -10.19330  -1.12104  -1.11141
 Alpha  occ. eigenvalues --   -1.06671  -0.93583  -0.92945  -0.91493  -0.90618
 Alpha  occ. eigenvalues --   -0.86776  -0.82488  -0.81691  -0.78660  -0.78302
 Alpha  occ. eigenvalues --   -0.75192  -0.72626  -0.69617  -0.68154  -0.65474
 Alpha  occ. eigenvalues --   -0.63592  -0.62885  -0.59818  -0.58468  -0.56899
 Alpha  occ. eigenvalues --   -0.54771  -0.52893  -0.52847  -0.51350  -0.51034
 Alpha  occ. eigenvalues --   -0.50249  -0.50121  -0.48732  -0.47752  -0.46442
 Alpha  occ. eigenvalues --   -0.45645  -0.44750  -0.43326  -0.42967  -0.42868
 Alpha  occ. eigenvalues --   -0.41141  -0.40514  -0.40511  -0.39771  -0.38767
 Alpha  occ. eigenvalues --   -0.38759  -0.38389  -0.38187  -0.38073  -0.37781
 Alpha  occ. eigenvalues --   -0.37361  -0.37312  -0.35588  -0.35366  -0.35360
 Alpha  occ. eigenvalues --   -0.34155  -0.33845  -0.33235  -0.32442  -0.28791
 Alpha  occ. eigenvalues --   -0.26444  -0.23876
 Alpha virt. eigenvalues --   -0.14101  -0.04594  -0.02030  -0.01945  -0.01431
 Alpha virt. eigenvalues --   -0.00440  -0.00274   0.00615   0.00959   0.01120
 Alpha virt. eigenvalues --    0.01469   0.01621   0.02723   0.02811   0.03331

 Mulliken charges:
               1
     1  C   -0.650464
     2  C    0.332580
     3  O   -0.309749
     4  C    0.183115
     5  C    0.272808
     6  C   -0.276011
     7  N   -0.485773
     8  C    0.800377
     9  C   -0.982801
    10  C   -0.051391
    11  O   -0.340601
    12  C   -0.122109
    13  C    0.617126
    14  C    0.996053
    15  C   -0.599203
    16  N   -0.486086
    17  C    0.040211
    18  N   -0.526092
    19  C   -0.309580
    20  C    0.108148
    21  O   -0.383959
    22  C    0.407409
    23  C   -0.826671
    24  H    0.145059
    25  H    0.165561
    26  H    0.165575
    27  H    0.117675
    28  H    0.117673
    29  H    0.151276
    30  H    0.151245
    31  H    0.150304
    32  H    0.156995
    33  H    0.169138
    34  H    0.157002
    35  H    0.148089
    36  H    0.153981
    37  H    0.153988
    38  H    0.162120
    39  H    0.163495
    40  H    0.163489
 Sum of Mulliken charges =  -0.00000

 Dipole moment (field-independent basis, Debye):
    X=              7.2302    Y=              3.1248    Z=             -0.0002  Tot=              7.8765
 Quadrupole moment (field-independent basis, Debye-Ang):
   XX=           -175.5599   YY=           -137.9463   ZZ=           -135.3754
   XY=             27.0901   XZ=             -0.0076   YZ=              0.0000

 Normal termination of Gaussian 16 at Wed Sep  3 19:54:00 2025.
