 Gaussian 16, Revision C.02,
 Gaussian 16:  ES64L-G16RevC.02  7-Dec-2021

 ----------------------------------------------------------
 # td=(50-50,nstates=3) b3lyp/6-31+g(d,p) geom=connectivity
 ----------------------------------------------------------

 -------------------
 Title Card Required
 -------------------
 Symbolic Z-matrix:
 Charge =  0 Multiplicity = 1

                         Standard orientation:
 ---------------------------------------------------------------------
 Center     Atomic      Atomic             Coordinates (Angstroms)
 Number     Number       Type             X           Y           Z
 ---------------------------------------------------------------------
      1         17           0        7.815205    0.002200   -0.357004
      2          6           0        6.065922    0.006457   -0.169136
      3          6           0        5.409760   -1.168275    0.197936
      4          6           0        4.022495   -1.156478    0.344051
      5          6           0        3.272110    0.013207    0.130853
      6          6           0        1.795223    0.016007    0.289238
      7          6           0        0.969972    0.739760   -0.586329
      8          6           0       -0.418079    0.747476   -0.433840
      9          6           0       -1.035156    0.026543    0.595913
     10          6           0       -2.554296   -0.022221    0.785887
     11          6           0       -3.258199    1.246450    0.291268
     12          6           0       -3.255000    2.387556    1.108727
     13          6           0       -3.858819    3.574702    0.691459
     14          6           0       -4.480246    3.642614   -0.559394
     15          6           0       -4.493210    2.513348   -1.380425
     16          6           0       -3.889929    1.324449   -0.956818
     17          6           0       -3.182501   -1.308037    0.236416
     18          6           0       -4.350766   -1.803649    0.836135
     19          6           0       -4.974759   -2.955612    0.354898
     20          6           0       -4.438477   -3.636815   -0.742274
     21          6           0       -3.275032   -3.155610   -1.345858
     22          6           0       -2.651123   -2.002410   -0.858362
     23          6           0       -0.211743   -0.695503    1.473084
     24          6           0        1.173594   -0.702120    1.326517
     25          6           0        3.965651    1.179486   -0.237137
     26          6           0        5.352366    1.184479   -0.389043
     27          1           0        5.973893   -2.080913    0.356874
     28          1           0        3.514605   -2.080076    0.604740
     29          1           0        1.414040    1.289082   -1.411565
     30          1           0       -1.023342    1.323964   -1.126376
     31          1           0       -2.717968   -0.050568    1.870804
     32          1           0       -2.770747    2.344583    2.081712
     33          1           0       -3.847160    4.443906    1.343166
     34          1           0       -4.953650    4.563836   -0.886475
     35          1           0       -4.978903    2.551529   -2.351567
     36          1           0       -3.922069    0.450256   -1.599569
     37          1           0       -4.777167   -1.277574    1.687242
     38          1           0       -5.876288   -3.322384    0.837688
     39          1           0       -4.919822   -4.535120   -1.117899
     40          1           0       -2.845344   -3.679314   -2.195322
     41          1           0       -1.738939   -1.649125   -1.329155
     42          1           0       -0.662593   -1.257196    2.287953
     43          1           0        1.781736   -1.247359    2.042561
     44          1           0        3.418442    2.105696   -0.383947
     45          1           0        5.874241    2.094554   -0.664411
 ---------------------------------------------------------------------

 SCF Done:  E(RB3LYP) =  -1424.37772803     A.U. after   17 cycles

 Excitation energies and oscillator strengths:

 Excited State   1:      Triplet-A      3.1706 eV  391.04 nm  f=0.0000  <S**2>=2.000
      86 ->102        -0.11500
      87 -> 96         0.15150
      88 -> 95        -0.10431
      92 -> 94        -0.15014
      93 -> 94         0.60618
 This state for optimization and/or second-order correction.
 Total Energy, E(TD-HF/TD-DFT) =  -1424.26120887
 Copying the excited state density for this state as the 1-particle RhoCI density.

 Excited State   2:      Triplet-A      3.6958 eV  335.48 nm  f=0.0000  <S**2>=2.000
      88 ->100        -0.11083
      89 -> 98        -0.25889
      90 -> 95         0.16560
      90 -> 96         0.17593
      90 -> 97        -0.16672
      90 -> 99        -0.12613
      91 ->100        -0.24756
      92 -> 95        -0.13763
      92 -> 97        -0.27649
      92 -> 99         0.20027
      93 -> 97        -0.18214

 Excited State   3:      Triplet-A      3.6986 eV  335.22 nm  f=0.0000  <S**2>=2.000
      88 -> 97         0.14034
      89 -> 95        -0.17052
      89 -> 99         0.20084
      89 ->100         0.10387
      90 -> 98         0.14673
      90 ->100         0.23608
      91 -> 96        -0.14251
      91 -> 97         0.28509
      92 -> 98        -0.29576
      92 ->100         0.10053
      93 -> 98        -0.10883
      93 ->100         0.10127

 Excited State   4:      Singlet-A      4.5381 eV  273.21 nm  f=0.7293  <S**2>=0.000
      93 -> 94         0.69619

 Excited State   5:      Singlet-A      4.6830 eV  264.75 nm  f=0.0016  <S**2>=0.000
      87 -> 94         0.18432
      88 -> 94         0.18324
      91 -> 94        -0.17753
      93 -> 95         0.58354
      93 -> 96        -0.16116
      93 -> 99         0.10200

 Excited State   6:      Singlet-A      4.7551 eV  260.74 nm  f=0.0054  <S**2>=0.000
      87 -> 94        -0.23787
      88 -> 94         0.18829
      91 -> 94        -0.17129
      93 -> 96         0.54641
      93 -> 97         0.18001
      93 -> 99         0.10416

 The electronic state is 1-A.
 Alpha  occ. eigenvalues -- -101.55623 -10.26110 -10.21725 -10.21687 -10.21299
 Alpha  occ. eigenvalues --  -10.21296 -10.21239 -10.21035 -10.21029 -10.21009
 Alpha  occ. eigenvalues --  -10.20841 -10.20832 -10.20269 -10.20210 -10.20076
 Alpha  occ. eigenvalues --  -10.20002 -10.19999 -10.19949 -10.19944 -10.19881
 Alpha  occ. eigenvalues --  -10.19852 -10.19851 -10.19792 -10.19785 -10.19609
 Alpha  occ. eigenvalues --  -10.19589  -9.47134  -7.23537  -7.22571  -7.22542
 Alpha  occ. eigenvalues --   -0.89903  -0.88143  -0.86680  -0.85829  -0.84411
 Alpha  occ. eigenvalues --   -0.80890  -0.77189  -0.76802  -0.75586  -0.75314
 Alpha  occ. eigenvalues --   -0.75148  -0.74801  -0.72757  -0.68347  -0.63706
 Alpha  occ. eigenvalues --   -0.62540  -0.61648  -0.61282  -0.60876  -0.60054
 Alpha  occ. eigenvalues --   -0.59011  -0.57261  -0.53877  -0.52448  -0.51553
 Alpha  occ. eigenvalues --   -0.49343  -0.48777  -0.48005  -0.47361  -0.46661
 Alpha  occ. eigenvalues --   -0.45704  -0.45199  -0.45167  -0.44949  -0.44094
 Alpha  occ. eigenvalues --   -0.42884  -0.42792  -0.42667  -0.42510  -0.42211
 Alpha  occ. eigenvalues --   -0.40414  -0.40118  -0.38879  -0.37788  -0.37161
 Alpha  occ. eigenvalues --   -0.36971  -0.36530  -0.36372  -0.35384  -0.35207
 Alpha  occ. eigenvalues --   -0.34296  -0.34087  -0.34018  -0.33463  -0.31807
 Alpha  occ. eigenvalues --   -0.27683  -0.27208  -0.26575  -0.26333  -0.25817
 Alpha  occ. eigenvalues --   -0.25585  -0.24800  -0.23028
 Alpha virt. eigenvalues --   -0.04788  -0.03107  -0.02907  -0.02432  -0.01741
 Alpha virt. eigenvalues --   -0.01233  -0.01092  -0.00492   0.00086   0.00365
 Alpha virt. eigenvalues --    0.00850   0.01324   0.01404   0.01857   0.02061

 Mulliken charges:
               1
     1  Cl   0.246660
     2  C    0.043727
     3  C   -0.559993
     4  C    0.020762
     5  C    0.318874
     6  C    0.573212
     7  C   -0.470219
     8  C   -0.532963
     9  C    0.098437
    10  C   -0.207365
    11  C    0.594830
    12  C    0.033016
    13  C   -0.306567
    14  C   -0.101124
    15  C   -0.191208
    16  C   -0.512858
    17  C    0.718762
    18  C    0.026248
    19  C   -0.166905
    20  C   -0.085645
    21  C   -0.147463
    22  C   -0.660906
    23  C   -0.001432
    24  C   -0.412340
    25  C   -0.415645
    26  C   -0.269084
    27  H    0.143358
    28  H    0.127696
    29  H    0.119203
    30  H    0.127128
    31  H    0.122359
    32  H    0.109549
    33  H    0.125151
    34  H    0.124068
    35  H    0.125280
    36  H    0.125276
    37  H    0.112008
    38  H    0.125344
    39  H    0.124020
    40  H    0.124359
    41  H    0.124942
    42  H    0.114811
    43  H    0.120532
    44  H    0.129036
    45  H    0.143064
 Sum of Mulliken charges =  -0.00000

 Dipole moment (field-independent basis, Debye):
    X=             -2.2672    Y=              0.0015    Z=              0.2643  Tot=              2.2826
 Quadrupole moment (field-independent basis, Debye-Ang):
   XX=           -174.8639   YY=           -149.4317   ZZ=           -155.6191
   XY=             -0.0834   XZ=              0.5305   YZ=             -1.8162

 Normal termination of Gaussian 16 at Sun Sep 21 19:32:14 2025.
