 Gaussian 16, Revision C.02,
 Gaussian 16:  ES64L-G16RevC.02  7-Dec-2021

 ----------------------------------------------------------
 # td=(50-50,nstates=3) b3lyp/6-31+g(d,p) geom=connectivity
 ----------------------------------------------------------

 -------------------
 Title Card Required
 -------------------
 Symbolic Z-matrix:
 Charge =  0 Multiplicity = 1

                         Standard orientation:
 ---------------------------------------------------------------------
 Center     Atomic      Atomic             Coordinates (Angstroms)
 Number     Number       Type             X           Y           Z
 ---------------------------------------------------------------------
      1          6           0        4.820354    1.752470   -0.086689
      2          8           0        4.135336    0.498880   -0.062377
      3          6           0        2.790449    0.474919   -0.014166
      4          6           0        1.991975    1.578382    0.015310
      5          6           0        0.546555    1.509608    0.067628
      6          6           0       -0.207932    2.669919    0.104488
      7          6           0       -1.714201    2.809923    0.165989
      8          6           0        0.493446    3.916095    0.084743
      9          7           0        1.030741    4.951698    0.070059
     10          6           0       -0.028192    0.158415    0.079893
     11          8           0       -1.376222    0.101972    0.120279
     12          6           0       -2.031309   -1.193017    0.118009
     13          6           0       -3.506172   -0.987360    0.169676
     14          6           0       -4.333697   -1.152072    1.253558
     15          6           0       -5.702928   -0.871188    0.965679
     16          6           0       -5.898014   -0.493435   -0.337033
     17         16           0       -4.415365   -0.480482   -1.232667
     18          6           0        0.776203   -0.947534    0.053430
     19          6           0        2.209612   -0.866613    0.007431
     20          6           0        2.975613   -2.030897   -0.013430
     21          6           0        4.400461   -2.115771   -0.059591
     22          7           0        5.549453   -2.307354   -0.096174
     23          6           0        2.319623   -3.301534    0.014123
     24          7           0        1.760829   -4.324351    0.038285
     25          1           0        4.606161    2.330443    0.819297
     26          1           0        5.879428    1.500346   -0.125455
     27          1           0        4.540712    2.331428   -0.974019
     28          1           0        2.440434    2.562578    0.001607
     29          1           0       -2.123677    2.306281    1.045618
     30          1           0       -1.987291    3.865566    0.205371
     31          1           0       -2.190554    2.356609   -0.707744
     32          1           0       -1.721525   -1.735669   -0.782741
     33          1           0       -1.708263   -1.759582    0.998536
     34          1           0       -3.971895   -1.469348    2.225940
     35          1           0       -6.504111   -0.948604    1.691258
     36          1           0       -6.825069   -0.224434   -0.824853
     37          1           0        0.340335   -1.936540    0.067149
 ---------------------------------------------------------------------

 SCF Done:  E(RB3LYP) =  -1406.56946880     A.U. after   17 cycles

 Excitation energies and oscillator strengths:

 Excited State   1:      Triplet-A      0.9425 eV 1315.52 nm  f=0.0000  <S**2>=2.000
      87 -> 88         0.74202
      87 <- 88         0.25372
 This state for optimization and/or second-order correction.
 Total Energy, E(TD-HF/TD-DFT) =  -1406.53483363
 Copying the excited state density for this state as the 1-particle RhoCI density.

 Excited State   2:      Triplet-A      2.0490 eV  605.09 nm  f=0.0000  <S**2>=2.000
      86 -> 88         0.69448

 Excited State   3:      Singlet-A      2.6974 eV  459.64 nm  f=0.0268  <S**2>=0.000
      86 -> 88         0.67505
      87 -> 88         0.19096

 Excited State   4:      Triplet-A      2.9698 eV  417.49 nm  f=0.0000  <S**2>=2.000
      85 -> 88         0.70609

 Excited State   5:      Singlet-A      2.9754 eV  416.70 nm  f=0.0003  <S**2>=0.000
      85 -> 88         0.70623

 Excited State   6:      Singlet-A      3.0031 eV  412.86 nm  f=0.8666  <S**2>=0.000
      86 -> 88        -0.19064
      87 -> 88         0.68790
      87 <- 88        -0.14689

 The electronic state is 1-A.
 Alpha  occ. eigenvalues --  -88.94128 -19.23500 -19.22419 -14.36669 -14.36157
 Alpha  occ. eigenvalues --  -14.35007 -10.31097 -10.30157 -10.29534 -10.28228
 Alpha  occ. eigenvalues --  -10.27711 -10.27566 -10.26749 -10.26635 -10.25640
 Alpha  occ. eigenvalues --  -10.25545 -10.25301 -10.24757 -10.24652 -10.23412
 Alpha  occ. eigenvalues --  -10.23236 -10.22755 -10.22367 -10.21957  -8.00050
 Alpha  occ. eigenvalues --   -5.96464  -5.96096  -5.95778  -1.12014  -1.11226
 Alpha  occ. eigenvalues --   -0.93712  -0.93491  -0.91553  -0.91380  -0.90510
 Alpha  occ. eigenvalues --   -0.86832  -0.82304  -0.81494  -0.78725  -0.76676
 Alpha  occ. eigenvalues --   -0.76471  -0.73685  -0.71601  -0.69347  -0.66804
 Alpha  occ. eigenvalues --   -0.63426  -0.60399  -0.59142  -0.58638  -0.57406
 Alpha  occ. eigenvalues --   -0.56783  -0.54587  -0.54005  -0.52182  -0.51728
 Alpha  occ. eigenvalues --   -0.50327  -0.49720  -0.48546  -0.46633  -0.46242
 Alpha  occ. eigenvalues --   -0.45213  -0.44111  -0.43531  -0.42994  -0.42466
 Alpha  occ. eigenvalues --   -0.42101  -0.41587  -0.40546  -0.40296  -0.38998
 Alpha  occ. eigenvalues --   -0.38831  -0.38826  -0.38482  -0.38300  -0.37613
 Alpha  occ. eigenvalues --   -0.37399  -0.37006  -0.35674  -0.35409  -0.35359
 Alpha  occ. eigenvalues --   -0.33998  -0.33277  -0.32478  -0.28240  -0.26772
 Alpha  occ. eigenvalues --   -0.26461  -0.23989
 Alpha virt. eigenvalues --   -0.14136  -0.05700  -0.04762  -0.02079  -0.01956
 Alpha virt. eigenvalues --   -0.01551  -0.01423  -0.00544  -0.00097   0.00619
 Alpha virt. eigenvalues --    0.00735   0.01027   0.01252   0.01488   0.02030

 Mulliken charges:
               1
     1  C   -0.124552
     2  O   -0.335119
     3  C   -0.632517
     4  C   -0.827677
     5  C    0.758104
     6  C    1.451158
     7  C   -0.460953
     8  C   -0.388018
     9  N   -0.493143
    10  C   -0.183828
    11  O   -0.325050
    12  C    0.630622
    13  C   -0.796438
    14  C    0.224646
    15  C   -0.314272
    16  C   -0.146064
    17  S    0.077597
    18  C   -0.456295
    19  C    0.402229
    20  C    1.413354
    21  C   -0.026758
    22  N   -0.524228
    23  C   -0.521439
    24  N   -0.485447
    25  H    0.155901
    26  H    0.169727
    27  H    0.155944
    28  H    0.148488
    29  H    0.187935
    30  H    0.164057
    31  H    0.188857
    32  H    0.159991
    33  H    0.154564
    34  H    0.136873
    35  H    0.143683
    36  H    0.168992
    37  H    0.149078
 Sum of Mulliken charges =  -0.00000

 Dipole moment (field-independent basis, Debye):
    X=             -6.8384    Y=              2.9513    Z=              0.6817  Tot=              7.4792
 Quadrupole moment (field-independent basis, Debye-Ang):
   XX=           -145.5857   YY=           -189.7352   ZZ=           -143.3951
   XY=             20.2317   XZ=             -2.3377   YZ=             -2.3715

 Normal termination of Gaussian 16 at Mon Aug 11 15:15:02 2025.
