 Gaussian 16, Revision C.02,
 Gaussian 16:  ES64L-G16RevC.02  7-Dec-2021

 ----------------------------------------------------------
 # td=(50-50,nstates=3) b3lyp/6-31+g(d,p) geom=connectivity
 ----------------------------------------------------------

 -------------------
 Title Card Required
 -------------------
 Symbolic Z-matrix:
 Charge =  0 Multiplicity = 1

                         Standard orientation:
 ---------------------------------------------------------------------
 Center     Atomic      Atomic             Coordinates (Angstroms)
 Number     Number       Type             X           Y           Z
 ---------------------------------------------------------------------
      1          6           0       -0.992190    3.141548    1.241379
      2          6           0       -1.240722    2.620649   -0.170951
      3          6           0       -2.485575    3.206739   -0.821083
      4          8           0       -1.467489    1.173990   -0.129584
      5          6           0       -0.464931    0.293571   -0.073106
      6          6           0        0.870471    0.603482   -0.072064
      7          6           0        1.876107   -0.417319   -0.042014
      8          6           0        3.233524   -0.096892   -0.047078
      9          6           0        4.248349   -1.098469   -0.020257
     10          7           0        5.073860   -1.920777    0.001896
     11          6           0        3.674342    1.259235   -0.079796
     12          7           0        4.006351    2.376121   -0.106288
     13          6           0        1.451173   -1.801916   -0.006530
     14          6           0        0.135351   -2.120720    0.004515
     15          6           0       -0.901597   -1.108571   -0.019170
     16          6           0       -2.235876   -1.487996    0.014083
     17          6           0       -3.372141   -0.620008    0.011625
     18          7           0       -4.371665   -0.022195    0.019573
     19          6           0       -2.587445   -2.876251    0.065398
     20          7           0       -2.877402   -4.003303    0.106421
     21          1           0       -0.807943    4.219884    1.206391
     22          1           0       -1.869804    2.961115    1.869458
     23          1           0       -0.125039    2.668615    1.710230
     24          1           0       -0.371473    2.801666   -0.813698
     25          1           0       -2.625079    2.806358   -1.828686
     26          1           0       -2.383328    4.294007   -0.890764
     27          1           0       -3.375967    2.974253   -0.230411
     28          1           0        1.192219    1.635814   -0.095551
     29          1           0        2.202609   -2.583536    0.013783
     30          1           0       -0.167332   -3.161494    0.034984
 ---------------------------------------------------------------------

 SCF Done:  E(RB3LYP) =  -871.781970766     A.U. after   18 cycles

 Excitation energies and oscillator strengths:

 Excited State   1:      Triplet-A      0.7007 eV 1769.38 nm  f=0.0000  <S**2>=2.000
      67 -> 69         0.13491
      68 -> 69         0.76003
      68 <- 69         0.31837
 This state for optimization and/or second-order correction.
 Total Energy, E(TD-HF/TD-DFT) =  -871.756219672
 Copying the excited state density for this state as the 1-particle RhoCI density.

 Excited State   2:      Triplet-A      2.0315 eV  610.30 nm  f=0.0000  <S**2>=2.000
      67 -> 69         0.68636
      68 -> 69        -0.11326

 Excited State   3:      Singlet-A      2.4639 eV  503.20 nm  f=0.2085  <S**2>=0.000
      67 -> 69        -0.48052
      68 -> 69         0.52013

 Excited State   4:      Singlet-A      3.0427 eV  407.48 nm  f=0.7567  <S**2>=0.000
      67 -> 69         0.51065
      68 -> 69         0.49605
      68 <- 69        -0.13347

 Excited State   5:      Triplet-A      3.0580 eV  405.44 nm  f=0.0000  <S**2>=2.000
      66 -> 69         0.65583
      68 -> 70        -0.21462

 Excited State   6:      Singlet-A      3.9641 eV  312.77 nm  f=0.0004  <S**2>=0.000
      65 -> 69         0.68389
      66 -> 69         0.14899

 The electronic state is 1-A.
 Alpha  occ. eigenvalues --  -19.24164 -14.38803 -14.38325 -14.38099 -14.38063
 Alpha  occ. eigenvalues --  -10.33053 -10.31993 -10.30753 -10.29902 -10.29458
 Alpha  occ. eigenvalues --  -10.29296 -10.27935 -10.27601 -10.27527 -10.27306
 Alpha  occ. eigenvalues --  -10.26497 -10.26333 -10.25190 -10.21703 -10.21039
 Alpha  occ. eigenvalues --   -1.12989  -0.96316  -0.95846  -0.94329  -0.94183
 Alpha  occ. eigenvalues --   -0.93081  -0.89083  -0.84580  -0.83872  -0.80694
 Alpha  occ. eigenvalues --   -0.76610  -0.72969  -0.70169  -0.68441  -0.64554
 Alpha  occ. eigenvalues --   -0.63519  -0.60194  -0.59638  -0.57803  -0.54389
 Alpha  occ. eigenvalues --   -0.52399  -0.50835  -0.50233  -0.47972  -0.47196
 Alpha  occ. eigenvalues --   -0.46066  -0.45089  -0.43687  -0.43484  -0.42654
 Alpha  occ. eigenvalues --   -0.41596  -0.40848  -0.40779  -0.40603  -0.40037
 Alpha  occ. eigenvalues --   -0.40018  -0.39806  -0.38870  -0.38148  -0.38128
 Alpha  occ. eigenvalues --   -0.37855  -0.37625  -0.37301  -0.36764  -0.35437
 Alpha  occ. eigenvalues --   -0.34517  -0.30095  -0.26608
 Alpha virt. eigenvalues --   -0.17664  -0.07005  -0.05613  -0.04105  -0.03590
 Alpha virt. eigenvalues --   -0.02149  -0.00833  -0.00240   0.00219   0.00608
 Alpha virt. eigenvalues --    0.00801   0.01089   0.01296   0.01980   0.02092

 Mulliken charges:
               1
     1  C   -0.416292
     2  C    0.170339
     3  C   -0.446135
     4  O   -0.277957
     5  C   -0.545120
     6  C   -0.234481
     7  C    1.007060
     8  C    1.192944
     9  C   -0.189589
    10  N   -0.476022
    11  C   -0.466425
    12  N   -0.456628
    13  C   -0.657049
    14  C   -0.757770
    15  C    0.704145
    16  C    1.564255
    17  C   -0.167249
    18  N   -0.473843
    19  C   -0.234380
    20  N   -0.451554
    21  H    0.165543
    22  H    0.168219
    23  H    0.154155
    24  H    0.128858
    25  H    0.163571
    26  H    0.155882
    27  H    0.182254
    28  H    0.148456
    29  H    0.172118
    30  H    0.172698
 Sum of Mulliken charges =  -0.00000

 Dipole moment (field-independent basis, Debye):
    X=             -1.3069    Y=              3.0861    Z=             -0.0631  Tot=              3.3520
 Quadrupole moment (field-independent basis, Debye-Ang):
   XX=           -167.9892   YY=           -125.8952   ZZ=           -114.7582
   XY=            -12.5272   XZ=              0.8148   YZ=              0.6568

 Normal termination of Gaussian 16 at Mon Aug 11 15:03:39 2025.
