 Gaussian 16, Revision C.02,
 Gaussian 16:  ES64L-G16RevC.02  7-Dec-2021

 ----------------------------------------------------------
 # td=(50-50,nstates=3) b3lyp/6-31+g(d,p) geom=connectivity
 ----------------------------------------------------------

 -------------------
 Title Card Required
 -------------------
 Symbolic Z-matrix:
 Charge =  0 Multiplicity = 1

                         Standard orientation:
 ---------------------------------------------------------------------
 Center     Atomic      Atomic             Coordinates (Angstroms)
 Number     Number       Type             X           Y           Z
 ---------------------------------------------------------------------
      1          6           0       -3.172506    2.809831    0.666734
      2          7           0       -2.585308    1.530045    0.321442
      3          6           0       -1.491622    1.023460    1.158420
      4          6           0       -1.251300   -0.423854    0.648833
      5          6           0       -0.715414   -1.346997    1.749900
      6          6           0       -0.342184   -0.436472   -0.623624
      7          7           0        1.087832   -0.213928   -0.395739
      8          6           0        1.827406    0.957325   -0.402148
      9          6           0        1.262973    2.225425   -0.627399
     10          7           0        0.832751    3.295977   -0.811169
     11          6           0        3.176110    0.601751   -0.208950
     12          6           0        4.394404    1.319213   -0.117941
     13          6           0        5.556130    0.599406    0.069773
     14          6           0        5.555604   -0.824940    0.170934
     15          6           0        4.386488   -1.551757    0.084691
     16          6           0        3.202411   -0.814198   -0.105101
     17          7           0        1.922453   -1.286710   -0.235555
     18          8           0        1.508631   -2.486600   -0.242053
     19          6           0       -2.655772   -0.766170    0.155684
     20          6           0       -3.226221   -1.989458   -0.167451
     21          6           0       -4.544501   -2.024862   -0.651581
     22          6           0       -5.260022   -0.834574   -0.809644
     23          6           0       -4.693085    0.407963   -0.494241
     24          6           0       -3.377910    0.431873   -0.018750
     25          1           0       -2.376314    3.551296    0.771675
     26          1           0       -3.835073    3.146394   -0.135027
     27          1           0       -3.749927    2.771473    1.607117
     28          1           0       -0.616226    1.673558    1.088332
     29          1           0       -1.802031    0.983184    2.218095
     30          1           0        0.242714   -0.983339    2.138334
     31          1           0       -1.424499   -1.384022    2.581885
     32          1           0       -0.551837   -2.361156    1.379097
     33          1           0       -0.408435   -1.413426   -1.105848
     34          1           0       -0.675207    0.336222   -1.320636
     35          1           0        4.405568    2.401390   -0.195597
     36          1           0        6.502319    1.126827    0.142596
     37          1           0        6.498606   -1.341684    0.318003
     38          1           0        4.355598   -2.632805    0.155147
     39          1           0       -2.667525   -2.912903   -0.037546
     40          1           0       -5.007686   -2.975422   -0.896446
     41          1           0       -6.281874   -0.868633   -1.177320
     42          1           0       -5.267251    1.320367   -0.617127
 ---------------------------------------------------------------------

 SCF Done:  E(RB3LYP) =  -1029.05584071     A.U. after   17 cycles

 Excitation energies and oscillator strengths:

 Excited State   1:      Triplet-A      1.5382 eV  806.03 nm  f=0.0000  <S**2>=2.000
      83 -> 85         0.70563
      83 <- 85         0.16285
 This state for optimization and/or second-order correction.
 Total Energy, E(TD-HF/TD-DFT) =  -1028.99931232
 Copying the excited state density for this state as the 1-particle RhoCI density.

 Excited State   2:      Triplet-A      2.5727 eV  481.91 nm  f=0.0000  <S**2>=2.000
      84 -> 85         0.69927

 Excited State   3:      Singlet-A      2.6046 eV  476.01 nm  f=0.0235  <S**2>=0.000
      84 -> 85         0.70503

 Excited State   4:      Singlet-A      3.2468 eV  381.87 nm  f=0.1201  <S**2>=0.000
      83 -> 85         0.68918
      83 -> 86        -0.11170

 Excited State   5:      Triplet-A      3.3645 eV  368.51 nm  f=0.0000  <S**2>=2.000
      80 -> 85         0.42674
      80 -> 86        -0.13695
      83 -> 86         0.45116
      83 -> 88        -0.19841

 Excited State   6:      Singlet-A      4.0628 eV  305.17 nm  f=0.0202  <S**2>=0.000
      82 -> 85         0.69931

 The electronic state is 1-A.
 Alpha  occ. eigenvalues --  -19.16177 -14.52518 -14.46774 -14.36017 -14.35982
 Alpha  occ. eigenvalues --  -10.28209 -10.25828 -10.25695 -10.25450 -10.24039
 Alpha  occ. eigenvalues --  -10.23099 -10.23019 -10.22927 -10.22706 -10.22662
 Alpha  occ. eigenvalues --  -10.22322 -10.22224 -10.22145 -10.19906 -10.19785
 Alpha  occ. eigenvalues --  -10.19698 -10.19406 -10.18937 -10.18834  -1.17077
 Alpha  occ. eigenvalues --   -1.02866  -0.97024  -0.92472  -0.90944  -0.85847
 Alpha  occ. eigenvalues --   -0.84885  -0.82863  -0.81176  -0.77425  -0.75158
 Alpha  occ. eigenvalues --   -0.74690  -0.73376  -0.71884  -0.68398  -0.66330
 Alpha  occ. eigenvalues --   -0.65156  -0.64251  -0.62422  -0.58605  -0.58483
 Alpha  occ. eigenvalues --   -0.57301  -0.55229  -0.54200  -0.52551  -0.50627
 Alpha  occ. eigenvalues --   -0.50208  -0.49135  -0.48659  -0.47603  -0.46929
 Alpha  occ. eigenvalues --   -0.46725  -0.46368  -0.45644  -0.44222  -0.43968
 Alpha  occ. eigenvalues --   -0.43092  -0.41578  -0.41269  -0.40136  -0.39700
 Alpha  occ. eigenvalues --   -0.39419  -0.39141  -0.38645  -0.38421  -0.38012
 Alpha  occ. eigenvalues --   -0.37609  -0.37037  -0.36407  -0.35524  -0.34594
 Alpha  occ. eigenvalues --   -0.33884  -0.33066  -0.29507  -0.29448  -0.29073
 Alpha  occ. eigenvalues --   -0.28371  -0.25597  -0.21461  -0.20311
 Alpha virt. eigenvalues --   -0.08940  -0.03075  -0.01979  -0.01267  -0.01058
 Alpha virt. eigenvalues --   -0.00654  -0.00223   0.00392   0.01146   0.01328
 Alpha virt. eigenvalues --    0.01772   0.02133   0.02862   0.03255   0.03386

 Mulliken charges:
               1
     1  C   -0.239911
     2  N    0.052617
     3  C   -0.513600
     4  C    0.835671
     5  C   -0.418283
     6  C   -0.811877
     7  N    0.074067
     8  C    0.927600
     9  C   -0.130312
    10  N   -0.561164
    11  C    1.671655
    12  C   -0.951049
    13  C   -0.141113
    14  C   -0.191356
    15  C   -0.575668
    16  C   -0.566109
    17  N   -0.225812
    18  O    0.031230
    19  C    0.158463
    20  C   -0.196650
    21  C   -0.138557
    22  C   -0.260543
    23  C    0.101556
    24  C   -0.597816
    25  H    0.158236
    26  H    0.144642
    27  H    0.140473
    28  H    0.146553
    29  H    0.138411
    30  H    0.147101
    31  H    0.153273
    32  H    0.187212
    33  H    0.201472
    34  H    0.183143
    35  H    0.150607
    36  H    0.134361
    37  H    0.135727
    38  H    0.159686
    39  H    0.124651
    40  H    0.122611
    41  H    0.122292
    42  H    0.116511
 Sum of Mulliken charges =  -0.00000

 Dipole moment (field-independent basis, Debye):
    X=              1.4472    Y=              0.0330    Z=              1.4360  Tot=              2.0391
 Quadrupole moment (field-independent basis, Debye-Ang):
   XX=           -118.6549   YY=           -153.3609   ZZ=           -145.0809
   XY=             -2.2258   XZ=              2.2177   YZ=              3.9333

 Normal termination of Gaussian 16 at Mon Aug 11 15:19:23 2025.
