 Gaussian 16, Revision C.02,
 Gaussian 16:  ES64L-G16RevC.02  7-Dec-2021

 ----------------------------------------------------------
 # td=(50-50,nstates=3) b3lyp/6-31+g(d,p) geom=connectivity
 ----------------------------------------------------------

 -------------------
 Title Card Required
 -------------------
 Symbolic Z-matrix:
 Charge =  0 Multiplicity = 1

                         Standard orientation:
 ---------------------------------------------------------------------
 Center     Atomic      Atomic             Coordinates (Angstroms)
 Number     Number       Type             X           Y           Z
 ---------------------------------------------------------------------
      1          6           0       -3.001851    0.414079   -1.682185
      2          6           0       -2.572859   -0.317910   -0.639459
      3          6           0       -3.510237   -1.054770    0.170160
      4          7           0       -4.258082   -1.638526    0.843057
      5          6           0       -1.146132   -0.458308   -0.273316
      6          6           0       -0.219656    0.406058    0.180790
      7          6           0       -0.377223    1.856933    0.613910
      8          6           0       -0.583063    2.848493   -0.549721
      9          6           0       -1.480283    2.019861    1.681089
     10          6           0        1.035133   -0.410487    0.444806
     11          6           0        2.305077   -0.057438   -0.415918
     12          6           0        3.473173   -0.883858   -0.052052
     13          7           0        4.418172   -1.492902    0.231273
     14          6           0        2.691701    1.361496   -0.309848
     15          7           0        3.000523    2.477567   -0.244589
     16          6           0        0.595151   -1.843009    0.099354
     17          8           0        1.224434   -2.861369    0.148087
     18          8           0       -0.700032   -1.787450   -0.354584
     19          1           0       -2.298514    0.939492   -2.317449
     20          1           0       -4.058014    0.488147   -1.917688
     21          1           0        0.568941    2.130480    1.092404
     22          1           0       -0.506046    3.874861   -0.177261
     23          1           0        0.171633    2.724280   -1.331406
     24          1           0       -1.573507    2.730696   -0.998554
     25          1           0       -1.491147    3.050716    2.049823
     26          1           0       -1.312912    1.357086    2.535921
     27          1           0       -2.471674    1.801257    1.272830
     28          1           0        1.325915   -0.365867    1.501548
     29          1           0        2.072235   -0.250412   -1.472042
 ---------------------------------------------------------------------

 SCF Done:  E(RB3LYP) =  -816.646607683     A.U. after   16 cycles

 Excitation energies and oscillator strengths:

 Excited State   1:      Triplet-A      3.0361 eV  408.37 nm  f=0.0000  <S**2>=2.000
      61 -> 64         0.26511
      62 -> 64        -0.25302
      62 -> 65        -0.10645
      63 -> 64         0.53955
      63 -> 65        -0.12998
 This state for optimization and/or second-order correction.
 Total Energy, E(TD-HF/TD-DFT) =  -816.535033761
 Copying the excited state density for this state as the 1-particle RhoCI density.

 Excited State   2:      Triplet-A      3.4777 eV  356.51 nm  f=0.0000  <S**2>=2.000
      61 -> 64         0.32670
      62 -> 64        -0.36110
      63 -> 64        -0.19756
      63 -> 65         0.37208
      63 -> 66         0.15387
      63 -> 67         0.11734
      63 -> 68         0.10829

 Excited State   3:      Singlet-A      4.2352 eV  292.75 nm  f=0.0566  <S**2>=0.000
      63 -> 64         0.68866

 Excited State   4:      Triplet-A      4.4113 eV  281.06 nm  f=0.0000  <S**2>=2.000
      61 -> 64        -0.15348
      61 -> 65        -0.12158
      62 -> 64         0.21599
      63 -> 64         0.35889
      63 -> 65         0.51373

 Excited State   5:      Singlet-A      4.9034 eV  252.85 nm  f=0.0412  <S**2>=0.000
      61 -> 65        -0.11821
      62 -> 64         0.22021
      62 -> 65        -0.13696
      63 -> 65         0.62227

 Excited State   6:      Singlet-A      5.1050 eV  242.87 nm  f=0.0185  <S**2>=0.000
      61 -> 64        -0.28657
      61 -> 65         0.25431
      62 -> 64        -0.34088
      62 -> 65         0.35059
      63 -> 65         0.29592

 The electronic state is 1-A.
 Alpha  occ. eigenvalues --  -19.25538 -19.19581 -14.39129 -14.37990 -14.37378
 Alpha  occ. eigenvalues --  -10.37035 -10.33494 -10.31200 -10.29254 -10.28809
 Alpha  occ. eigenvalues --  -10.28424 -10.27265 -10.26441 -10.26359 -10.25608
 Alpha  occ. eigenvalues --  -10.24213 -10.21022 -10.20927  -1.16603  -1.08651
 Alpha  occ. eigenvalues --   -0.96506  -0.94455  -0.94093  -0.90222  -0.87777
 Alpha  occ. eigenvalues --   -0.84727  -0.80369  -0.76455  -0.71771  -0.69730
 Alpha  occ. eigenvalues --   -0.66534  -0.64758  -0.61826  -0.59113  -0.58567
 Alpha  occ. eigenvalues --   -0.56223  -0.52996  -0.51940  -0.50302  -0.49372
 Alpha  occ. eigenvalues --   -0.48700  -0.46957  -0.46287  -0.44625  -0.44153
 Alpha  occ. eigenvalues --   -0.43410  -0.42069  -0.41363  -0.41031  -0.40168
 Alpha  occ. eigenvalues --   -0.39933  -0.39224  -0.39144  -0.38764  -0.38233
 Alpha  occ. eigenvalues --   -0.37762  -0.36963  -0.36771  -0.36610  -0.36013
 Alpha  occ. eigenvalues --   -0.32555  -0.31918  -0.28483
 Alpha virt. eigenvalues --   -0.10198  -0.07434  -0.04584  -0.04102  -0.02605
 Alpha virt. eigenvalues --   -0.01858  -0.00943  -0.00683  -0.00268   0.00457
 Alpha virt. eigenvalues --    0.00574   0.01508   0.01668   0.02219   0.02515

 Mulliken charges:
               1
     1  C   -0.232045
     2  C    0.090969
     3  C   -0.017925
     4  N   -0.463966
     5  C    0.602524
     6  C   -0.676638
     7  C    0.426459
     8  C   -0.579075
     9  C   -0.577035
    10  C    0.047166
    11  C    0.630239
    12  C    0.031854
    13  N   -0.408246
    14  C   -0.064713
    15  N   -0.388392
    16  C    0.343171
    17  O   -0.400318
    18  O   -0.216341
    19  H    0.162129
    20  H    0.176413
    21  H    0.142482
    22  H    0.159671
    23  H    0.156213
    24  H    0.138468
    25  H    0.154870
    26  H    0.152796
    27  H    0.160943
    28  H    0.215204
    29  H    0.233121
 Sum of Mulliken charges =  -0.00000

 Dipole moment (field-independent basis, Debye):
    X=             -2.9950    Y=              4.9700    Z=             -2.5728  Tot=              6.3475
 Quadrupole moment (field-independent basis, Debye-Ang):
   XX=           -137.4237   YY=           -127.2139   ZZ=            -98.3341
   XY=             -8.4847   XZ=              7.1361   YZ=              2.8481

 Normal termination of Gaussian 16 at Thu Sep  4 20:41:16 2025.
