 Gaussian 16, Revision C.02,
 Gaussian 16:  ES64L-G16RevC.02  7-Dec-2021

 ----------------------------------------------------------
 # td=(50-50,nstates=3) b3lyp/6-31+g(d,p) geom=connectivity
 ----------------------------------------------------------

 -------------------
 Title Card Required
 -------------------
 Symbolic Z-matrix:
 Charge =  0 Multiplicity = 1

                         Standard orientation:
 ---------------------------------------------------------------------
 Center     Atomic      Atomic             Coordinates (Angstroms)
 Number     Number       Type             X           Y           Z
 ---------------------------------------------------------------------
      1          6           0       -3.812519   -0.245714   -1.387215
      2          6           0       -2.766557   -0.910863   -0.859869
      3          6           0       -2.599816   -2.312299   -1.161193
      4          7           0       -2.467382   -3.438486   -1.420585
      5          6           0       -1.746428   -0.312898    0.025173
      6          6           0       -1.053995    0.839581   -0.078777
      7          6           0       -1.231049    1.943853   -1.094281
      8          6           0       -1.969452    3.153692   -0.477056
      9          6           0        0.089172    2.403215   -1.740481
     10          6           0       -0.055510    0.874757    1.071980
     11          6           0        1.422561    0.701933    0.686618
     12          8           0        2.310974    1.317824    1.247440
     13          8           0        1.597866   -0.212753   -0.277358
     14          6           0        2.943466   -0.605681   -0.775056
     15          6           0        3.655914    0.606048   -1.384295
     16          6           0        2.606390   -1.641057   -1.849979
     17          6           0        3.754466   -1.239289    0.359652
     18          6           0       -0.599957   -0.271417    2.002310
     19          6           0       -1.534207    0.319203    3.064629
     20          6           0        0.437727   -1.191515    2.633988
     21          8           0       -1.419856   -1.092270    1.107132
     22          1           0       -3.993839    0.794261   -1.143048
     23          1           0       -4.506640   -0.737889   -2.059483
     24          1           0       -1.864104    1.546269   -1.897071
     25          1           0       -2.143828    3.925046   -1.235727
     26          1           0       -2.937896    2.863295   -0.056181
     27          1           0       -1.379563    3.608837    0.326918
     28          1           0       -0.111518    3.173830   -2.492580
     29          1           0        0.600460    1.571769   -2.231638
     30          1           0        0.772557    2.838070   -1.002383
     31          1           0       -0.080786    1.821038    1.621471
     32          1           0        4.588025    0.272316   -1.852467
     33          1           0        3.894755    1.353428   -0.626535
     34          1           0        3.037618    1.068677   -2.159334
     35          1           0        3.528290   -2.026983   -2.296133
     36          1           0        2.049358   -2.479116   -1.421579
     37          1           0        1.998791   -1.194577   -2.642644
     38          1           0        3.218010   -2.090422    0.790134
     39          1           0        4.702824   -1.610262   -0.043178
     40          1           0        3.971647   -0.516561    1.147607
     41          1           0       -2.037140   -0.485447    3.608534
     42          1           0       -0.962351    0.921494    3.778517
     43          1           0       -2.295783    0.956730    2.605236
     44          1           0        1.103670   -0.625054    3.291825
     45          1           0       -0.068213   -1.957522    3.228656
     46          1           0        1.034218   -1.693522    1.870566
 ---------------------------------------------------------------------

 SCF Done:  E(RB3LYP) =  -943.327069012     A.U. after   16 cycles

 Excitation energies and oscillator strengths:

 Excited State   1:      Triplet-A      2.5572 eV  484.84 nm  f=0.0000  <S**2>=2.000
      77 -> 80         0.23530
      78 -> 80        -0.11795
      79 -> 80         0.62386
      79 -> 81         0.10848
 This state for optimization and/or second-order correction.
 Total Energy, E(TD-HF/TD-DFT) =  -943.233092774
 Copying the excited state density for this state as the 1-particle RhoCI density.

 Excited State   2:      Singlet-A      3.5014 eV  354.09 nm  f=0.0604  <S**2>=0.000
      79 -> 80         0.69962

 Excited State   3:      Triplet-A      3.5221 eV  352.02 nm  f=0.0000  <S**2>=2.000
      77 -> 80         0.58973
      78 -> 80        -0.14557
      79 -> 80        -0.16703
      79 -> 81        -0.17982
      79 -> 84        -0.12071

 Excited State   4:      Triplet-A      4.1616 eV  297.92 nm  f=0.0000  <S**2>=2.000
      77 -> 80         0.18202
      79 -> 80        -0.27375
      79 -> 81         0.49310
      79 -> 84         0.21058
      79 -> 85        -0.16240
      79 -> 86        -0.14976
      79 -> 92         0.11607

 Excited State   5:      Singlet-A      4.7640 eV  260.25 nm  f=0.0036  <S**2>=0.000
      78 -> 81         0.13185
      79 -> 81         0.66459
      79 -> 82         0.11359

 Excited State   6:      Singlet-A      5.1513 eV  240.69 nm  f=0.0059  <S**2>=0.000
      78 -> 80        -0.32602
      79 -> 82         0.60823

 The electronic state is 1-A.
 Alpha  occ. eigenvalues --  -19.20102 -19.18545 -19.14979 -14.34782 -10.32740
 Alpha  occ. eigenvalues --  -10.27268 -10.27000 -10.26413 -10.26142 -10.23970
 Alpha  occ. eigenvalues --  -10.23223 -10.22233 -10.21479 -10.20699 -10.19284
 Alpha  occ. eigenvalues --  -10.19176 -10.18865 -10.18736 -10.18701 -10.18606
 Alpha  occ. eigenvalues --  -10.18574  -1.10783  -1.07884  -1.02489  -0.91503
 Alpha  occ. eigenvalues --   -0.85058  -0.84219  -0.82056  -0.80616  -0.77104
 Alpha  occ. eigenvalues --   -0.71164  -0.70519  -0.70327  -0.70242  -0.69727
 Alpha  occ. eigenvalues --   -0.67543  -0.63713  -0.61751  -0.59423  -0.56764
 Alpha  occ. eigenvalues --   -0.53508  -0.52492  -0.50779  -0.49426  -0.48223
 Alpha  occ. eigenvalues --   -0.47793  -0.46969  -0.46321  -0.45591  -0.45486
 Alpha  occ. eigenvalues --   -0.44204  -0.43801  -0.43226  -0.42790  -0.42239
 Alpha  occ. eigenvalues --   -0.41446  -0.40392  -0.40153  -0.39828  -0.39497
 Alpha  occ. eigenvalues --   -0.39049  -0.38807  -0.38188  -0.37724  -0.37415
 Alpha  occ. eigenvalues --   -0.36867  -0.36256  -0.36180  -0.35728  -0.35483
 Alpha  occ. eigenvalues --   -0.35160  -0.34837  -0.33866  -0.33462  -0.32980
 Alpha  occ. eigenvalues --   -0.30957  -0.29208  -0.28203  -0.22494
 Alpha virt. eigenvalues --   -0.07199  -0.01543  -0.01010   0.00122   0.00385
 Alpha virt. eigenvalues --    0.00755   0.01435   0.01826   0.02292   0.02896
 Alpha virt. eigenvalues --    0.02943   0.03453   0.03671   0.03982   0.04387

 Mulliken charges:
               1
     1  C   -0.382523
     2  C    0.269842
     3  C   -0.210896
     4  N   -0.480608
     5  C    0.455210
     6  C   -0.589625
     7  C    0.349562
     8  C   -0.506987
     9  C   -0.578215
    10  C    0.856051
    11  C   -0.509789
    12  O   -0.335194
    13  O   -0.096939
    14  C    0.159574
    15  C   -0.451340
    16  C   -0.401850
    17  C   -0.478345
    18  C   -0.078545
    19  C   -0.374919
    20  C   -0.378672
    21  O   -0.140846
    22  H    0.154679
    23  H    0.165234
    24  H    0.129834
    25  H    0.147488
    26  H    0.139311
    27  H    0.152485
    28  H    0.142347
    29  H    0.155278
    30  H    0.160211
    31  H    0.155434
    32  H    0.149497
    33  H    0.185982
    34  H    0.148917
    35  H    0.150001
    36  H    0.167994
    37  H    0.155011
    38  H    0.149350
    39  H    0.150235
    40  H    0.185242
    41  H    0.160519
    42  H    0.156564
    43  H    0.157596
    44  H    0.166877
    45  H    0.156472
    46  H    0.162497
 Sum of Mulliken charges =  -0.00000

 Dipole moment (field-independent basis, Debye):
    X=              0.0008    Y=              3.4739    Z=             -0.3073  Tot=              3.4875
 Quadrupole moment (field-independent basis, Debye-Ang):
   XX=           -122.1125   YY=           -146.1446   ZZ=           -125.4913
   XY=            -17.9104   XZ=             -4.2010   YZ=             -8.2893

 Normal termination of Gaussian 16 at Tue Aug 12 11:39:49 2025.
