 Gaussian 16, Revision C.02,
 Gaussian 16:  ES64L-G16RevC.02  7-Dec-2021

 ----------------------------------------------------------
 # td=(50-50,nstates=3) b3lyp/6-31+g(d,p) geom=connectivity
 ----------------------------------------------------------

 -------------------
 Title Card Required
 -------------------
 Symbolic Z-matrix:
 Charge =  0 Multiplicity = 1

                         Standard orientation:
 ---------------------------------------------------------------------
 Center     Atomic      Atomic             Coordinates (Angstroms)
 Number     Number       Type             X           Y           Z
 ---------------------------------------------------------------------
      1          6           0       -1.148903    2.426735   -0.581855
      2          7           0       -0.638079    1.097893   -0.245268
      3          6           0       -1.203395    0.482678    0.951003
      4          6           0       -2.325975   -0.472725    0.567099
      5          8           0       -3.459897   -0.401060    0.989678
      6          6           0       -1.960919   -1.520217   -0.414122
      7          7           0       -1.665666   -2.383400   -1.134084
      8          7           0        0.659159    0.914987   -0.612987
      9          6           0        1.335214   -0.116214   -0.269428
     10          6           0        2.755800   -0.244241   -0.770731
     11          6           0        3.720295   -0.370236    0.330822
     12          7           0        4.465403   -0.477287    1.215078
     13          1           0       -0.780509    2.696539   -1.571360
     14          1           0       -2.241280    2.398579   -0.606333
     15          1           0       -0.825206    3.187219    0.144025
     16          1           0       -0.431966   -0.058822    1.512104
     17          1           0       -1.632119    1.240523    1.615960
     18          1           0        0.950011   -0.939351    0.336557
     19          1           0        2.856686   -1.130933   -1.411366
     20          1           0        3.005130    0.634697   -1.372915
 ---------------------------------------------------------------------

 SCF Done:  E(RB3LYP) =  -565.714493294     A.U. after   15 cycles

 Excitation energies and oscillator strengths:

 Excited State   1:      Triplet-A      2.5963 eV  477.55 nm  f=0.0000  <S**2>=2.000
      41 -> 44        -0.18134
      42 -> 44         0.11042
      43 -> 44         0.67209
 This state for optimization and/or second-order correction.
 Total Energy, E(TD-HF/TD-DFT) =  -565.619082451
 Copying the excited state density for this state as the 1-particle RhoCI density.

 Excited State   2:      Singlet-A      2.9459 eV  420.86 nm  f=0.0346  <S**2>=0.000
      41 -> 44        -0.10463
      43 -> 44         0.69753

 Excited State   3:      Triplet-A      3.3936 eV  365.35 nm  f=0.0000  <S**2>=2.000
      35 -> 45        -0.11228
      41 -> 44         0.31535
      42 -> 44        -0.21972
      43 -> 44         0.11730
      43 -> 45         0.55605

 Excited State   4:      Triplet-A      3.4494 eV  359.44 nm  f=0.0000  <S**2>=2.000
      41 -> 44         0.45585
      42 -> 44        -0.29476
      43 -> 44         0.17688
      43 -> 45        -0.38911

 Excited State   5:      Singlet-A      3.9701 eV  312.30 nm  f=0.0012  <S**2>=0.000
      41 -> 44         0.52136
      42 -> 44        -0.45951

 Excited State   6:      Singlet-A      4.7394 eV  261.60 nm  f=0.0272  <S**2>=0.000
      41 -> 44         0.45259
      42 -> 44         0.53369

 The electronic state is 1-A.
 Alpha  occ. eigenvalues --  -19.21726 -14.42680 -14.41023 -14.39239 -14.35448
 Alpha  occ. eigenvalues --  -10.36051 -10.28102 -10.27291 -10.26282 -10.26071
 Alpha  occ. eigenvalues --  -10.24852 -10.24621  -1.11567  -1.05274  -0.95056
 Alpha  occ. eigenvalues --   -0.92359  -0.89949  -0.81730  -0.79253  -0.71303
 Alpha  occ. eigenvalues --   -0.69782  -0.61518  -0.57685  -0.55616  -0.53464
 Alpha  occ. eigenvalues --   -0.52447  -0.50457  -0.48363  -0.47223  -0.46352
 Alpha  occ. eigenvalues --   -0.45070  -0.43929  -0.42166  -0.41260  -0.39840
 Alpha  occ. eigenvalues --   -0.38129  -0.37860  -0.37616  -0.34862  -0.34329
 Alpha  occ. eigenvalues --   -0.33105  -0.31266  -0.25561
 Alpha virt. eigenvalues --   -0.11722  -0.04308  -0.02048  -0.01336   0.00106
 Alpha virt. eigenvalues --    0.00207   0.01058   0.01410   0.01725   0.02952
 Alpha virt. eigenvalues --    0.03111   0.03852   0.04190   0.04437   0.05025

 Mulliken charges:
               1
     1  C   -0.305592
     2  N    0.013045
     3  C   -0.230644
     4  C    0.349169
     5  O   -0.342765
     6  C    0.306537
     7  N   -0.444810
     8  N   -0.076666
     9  C   -0.098981
    10  C   -0.277121
    11  C    0.228589
    12  N   -0.501890
    13  H    0.174994
    14  H    0.162000
    15  H    0.151472
    16  H    0.170046
    17  H    0.185277
    18  H    0.125633
    19  H    0.204080
    20  H    0.207627
 Sum of Mulliken charges =  -0.00000

 Dipole moment (field-independent basis, Debye):
    X=             -1.5236    Y=              2.8959    Z=             -0.7992  Tot=              3.3684
 Quadrupole moment (field-independent basis, Debye-Ang):
   XX=            -97.0342   YY=            -71.9719   ZZ=            -73.4324
   XY=             -5.7686   XZ=            -11.4580   YZ=             -2.3515

 Normal termination of Gaussian 16 at Tue Aug 12 11:42:27 2025.
