 Gaussian 16, Revision C.02,
 Gaussian 16:  ES64L-G16RevC.02  7-Dec-2021

 ----------------------------------------------------------
 # td=(50-50,nstates=3) b3lyp/6-31+g(d,p) geom=connectivity
 ----------------------------------------------------------

 -------------------
 Title Card Required
 -------------------
 Symbolic Z-matrix:
 Charge =  0 Multiplicity = 1

                         Standard orientation:
 ---------------------------------------------------------------------
 Center     Atomic      Atomic             Coordinates (Angstroms)
 Number     Number       Type             X           Y           Z
 ---------------------------------------------------------------------
      1          6           0       -4.875518    1.663585    0.061904
      2          8           0       -4.153534    0.431020    0.026327
      3          6           0       -2.808257    0.446887   -0.000948
      4          6           0       -2.041943    1.573274   -0.000093
      5          6           0       -0.594474    1.546839   -0.020304
      6          6           0        0.126093    2.728032    0.021605
      7          6           0        1.629183    2.909513    0.046486
      8          6           0       -0.609802    3.953484    0.055644
      9          7           0       -1.175324    4.973776    0.080201
     10          6           0        0.020231    0.214110   -0.071705
     11          8           0        1.368708    0.195392   -0.131040
     12          6           0        2.057640   -1.084945   -0.116434
     13          7           0        3.451068   -0.847376   -0.206276
     14          6           0        4.165198   -0.649652   -1.471334
     15          6           0        5.561391   -0.169852   -1.014593
     16          6           0        5.711533   -0.734254    0.409167
     17          6           0        4.280421   -0.907775    0.903596
     18          8           0        3.901376   -1.097382    2.047137
     19          6           0       -0.752114   -0.915030   -0.064199
     20          6           0       -2.187758   -0.876606   -0.031689
     21          6           0       -2.919160   -2.062789   -0.040240
     22          6           0       -4.341445   -2.189676   -0.014671
     23          7           0       -5.484735   -2.414901    0.002715
     24          6           0       -2.226205   -3.313163   -0.087485
     25          7           0       -1.638099   -4.318632   -0.132551
     26          1           0       -4.664355    2.263874   -0.830165
     27          1           0       -5.927136    1.379926    0.079201
     28          1           0       -4.626794    2.233932    0.963816
     29          1           0       -2.518874    2.543660    0.028659
     30          1           0        2.080863    2.353243    0.871530
     31          1           0        2.085507    2.541432   -0.877431
     32          1           0        1.873063    3.967364    0.156604
     33          1           0        1.842101   -1.590762    0.829087
     34          1           0        1.709898   -1.675867   -0.971018
     35          1           0        3.651927    0.087679   -2.095607
     36          1           0        4.218001   -1.594462   -2.030527
     37          1           0        6.347614   -0.500111   -1.696945
     38          1           0        5.581751    0.924216   -0.986652
     39          1           0        6.274338   -0.094500    1.091836
     40          1           0        6.188506   -1.722314    0.417864
     41          1           0       -0.289271   -1.891512   -0.086522
 ---------------------------------------------------------------------

 SCF Done:  E(RB3LYP) =  -1140.20359000     A.U. after   16 cycles

 Excitation energies and oscillator strengths:

 Excited State   1:      Triplet-A      0.9376 eV 1322.35 nm  f=0.0000  <S**2>=2.000
      88 -> 89         0.74257
      88 <- 89         0.25541
 This state for optimization and/or second-order correction.
 Total Energy, E(TD-HF/TD-DFT) =  -1140.16913372
 Copying the excited state density for this state as the 1-particle RhoCI density.

 Excited State   2:      Triplet-A      2.0434 eV  606.75 nm  f=0.0000  <S**2>=2.000
      87 -> 89         0.69628

 Excited State   3:      Singlet-A      2.6955 eV  459.97 nm  f=0.0259  <S**2>=0.000
      87 -> 89         0.67730
      88 -> 89         0.18489

 Excited State   4:      Singlet-A      3.0022 eV  412.97 nm  f=0.8623  <S**2>=0.000
      87 -> 89        -0.18449
      88 -> 89         0.68967
      88 <- 89        -0.14740

 Excited State   5:      Triplet-A      3.3291 eV  372.43 nm  f=0.0000  <S**2>=2.000
      84 -> 89         0.58452
      88 -> 90         0.36511

 Excited State   6:      Singlet-A      3.4209 eV  362.43 nm  f=0.0011  <S**2>=0.000
      86 -> 89         0.70663

 The electronic state is 1-A.
 Alpha  occ. eigenvalues --  -19.23517 -19.22480 -19.15319 -14.40373 -14.36751
 Alpha  occ. eigenvalues --  -14.36198 -14.35062 -10.31960 -10.31738 -10.31232
 Alpha  occ. eigenvalues --  -10.30229 -10.28307 -10.27798 -10.27616 -10.26790
 Alpha  occ. eigenvalues --  -10.26744 -10.26388 -10.25725 -10.25577 -10.24804
 Alpha  occ. eigenvalues --  -10.23505 -10.23289 -10.23053 -10.22593 -10.22309
 Alpha  occ. eigenvalues --   -1.12433  -1.11291  -1.07005  -0.98488  -0.93760
 Alpha  occ. eigenvalues --   -0.93552  -0.91579  -0.90712  -0.86938  -0.84249
 Alpha  occ. eigenvalues --   -0.82163  -0.79793  -0.76815  -0.75303  -0.75177
 Alpha  occ. eigenvalues --   -0.72338  -0.69707  -0.67167  -0.64639  -0.63582
 Alpha  occ. eigenvalues --   -0.60875  -0.59258  -0.58065  -0.57168  -0.54776
 Alpha  occ. eigenvalues --   -0.54302  -0.52799  -0.51924  -0.51297  -0.50386
 Alpha  occ. eigenvalues --   -0.49742  -0.48623  -0.47369  -0.46605  -0.45935
 Alpha  occ. eigenvalues --   -0.45552  -0.44991  -0.44116  -0.43544  -0.43327
 Alpha  occ. eigenvalues --   -0.42935  -0.41987  -0.41538  -0.41033  -0.39583
 Alpha  occ. eigenvalues --   -0.39270  -0.38881  -0.38865  -0.38601  -0.38348
 Alpha  occ. eigenvalues --   -0.37856  -0.37454  -0.36646  -0.35735  -0.35457
 Alpha  occ. eigenvalues --   -0.35439  -0.34078  -0.33326  -0.32545  -0.29006
 Alpha  occ. eigenvalues --   -0.28481  -0.26540  -0.24064
 Alpha virt. eigenvalues --   -0.14216  -0.04844  -0.02457  -0.02117  -0.02007
 Alpha virt. eigenvalues --   -0.01498  -0.00945  -0.00775   0.00187   0.00286
 Alpha virt. eigenvalues --    0.00705   0.00962   0.01639   0.02108   0.02669

 Mulliken charges:
               1
     1  C   -0.119606
     2  O   -0.337845
     3  C   -0.253039
     4  C   -0.733637
     5  C    0.158774
     6  C    1.558523
     7  C   -0.549247
     8  C   -0.380850
     9  N   -0.494184
    10  C    0.286343
    11  O   -0.360657
    12  C   -0.509527
    13  N    0.145803
    14  C   -0.056677
    15  C   -0.344858
    16  C   -0.240981
    17  C    0.444297
    18  O   -0.477136
    19  C   -0.377158
    20  C    0.020793
    21  C    1.626598
    22  C   -0.094335
    23  N   -0.521122
    24  C   -0.541184
    25  N   -0.483205
    26  H    0.155490
    27  H    0.170080
    28  H    0.156706
    29  H    0.147864
    30  H    0.192581
    31  H    0.175733
    32  H    0.165461
    33  H    0.187642
    34  H    0.143087
    35  H    0.154326
    36  H    0.152956
    37  H    0.157418
    38  H    0.164382
    39  H    0.180239
    40  H    0.181501
    41  H    0.148653
 Sum of Mulliken charges =  -0.00000

 Dipole moment (field-independent basis, Debye):
    X=              7.1858    Y=              3.6060    Z=             -3.7249  Tot=              8.8608
 Quadrupole moment (field-independent basis, Debye-Ang):
   XX=           -139.6174   YY=           -187.3518   ZZ=           -151.6982
   XY=            -18.0631   XZ=            -15.5223   YZ=              3.7529

 Normal termination of Gaussian 16 at Tue Aug 12 12:21:31 2025.
