 Gaussian 16, Revision C.02,
 Gaussian 16:  ES64L-G16RevC.02  7-Dec-2021

 ----------------------------------------------------------
 # td=(50-50,nstates=3) b3lyp/6-31+g(d,p) geom=connectivity
 ----------------------------------------------------------

 -------------------
 Title Card Required
 -------------------
 Symbolic Z-matrix:
 Charge =  0 Multiplicity = 1

                         Standard orientation:
 ---------------------------------------------------------------------
 Center     Atomic      Atomic             Coordinates (Angstroms)
 Number     Number       Type             X           Y           Z
 ---------------------------------------------------------------------
      1          6           0        0.538720    3.230227    0.399867
      2          6           0       -0.302970    2.018424    0.164640
      3          6           0        0.190419    0.792404   -0.321691
      4          6           0        1.636349    0.663939   -0.785720
      5          8           0        1.940591    1.345386   -1.780334
      6          6           0        2.561361   -0.155350   -0.041278
      7          6           0        3.891381   -0.223002   -0.444833
      8          7           0        4.421393    0.413728   -1.495154
      9          6           0        4.892562   -1.058111    0.319862
     10          8           0        6.063179   -1.082166   -0.059635
     11          6           0        4.409029   -1.798476    1.479773
     12          6           0        3.116672   -1.745492    1.855032
     13          6           0        2.078175   -0.954583    1.140332
     14          7           0       -0.613033   -0.280649   -0.509737
     15          8           0       -0.155667   -1.401627   -0.955014
     16          6           0       -1.975012   -0.159111   -0.212798
     17          6           0       -2.829527   -1.258044   -0.414406
     18          6           0       -4.168208   -1.111855   -0.111231
     19         17           0       -5.259851   -2.458882   -0.348963
     20          6           0       -4.687974    0.103817    0.388205
     21          6           0       -3.847909    1.181731    0.582428
     22          6           0       -2.478244    1.060651    0.281837
     23          7           0       -1.620614    2.149194    0.474455
     24          8           0       -2.087154    3.252694    0.938125
     25          1           0        1.585991    3.038987    0.175394
     26          1           0        0.183488    4.055040   -0.227142
     27          1           0        0.424679    3.561716    1.437233
     28          1           0        5.407708    0.269971   -1.673310
     29          1           0        3.822193    0.985290   -2.079813
     30          1           0        5.144825   -2.391930    2.013122
     31          1           0        2.783130   -2.312470    2.721653
     32          1           0        1.292734   -1.651400    0.801839
     33          1           0        1.582136   -0.304469    1.878660
     34          1           0       -2.410152   -2.177160   -0.802007
     35          1           0       -5.745320    0.182627    0.613951
     36          1           0       -4.204698    2.131561    0.960605
 ---------------------------------------------------------------------

 SCF Done:  E(RB3LYP) =  -1542.22165518     A.U. after   19 cycles

 Excitation energies and oscillator strengths:

 Excited State   1:      Triplet-A      1.0583 eV 1171.51 nm  f=0.0000  <S**2>=2.000
      89 -> 90         0.65733
      89 -> 91        -0.32316
      89 -> 94        -0.16039
      89 <- 90         0.22906
      89 <- 91        -0.12766
 This state for optimization and/or second-order correction.
 Total Energy, E(TD-HF/TD-DFT) =  -1542.18276234
 Copying the excited state density for this state as the 1-particle RhoCI density.

 Excited State   2:      Triplet-A      2.0799 eV  596.11 nm  f=0.0000  <S**2>=2.000
      88 -> 90         0.47701
      88 -> 91         0.49607
      88 -> 93        -0.14755

 Excited State   3:      Singlet-A      2.6891 eV  461.06 nm  f=0.0143  <S**2>=0.000
      89 -> 90         0.54011
      89 -> 91         0.44576

 Excited State   4:      Triplet-A      2.7017 eV  458.92 nm  f=0.0000  <S**2>=2.000
      89 -> 90         0.30110
      89 -> 91         0.59986
      89 -> 92        -0.14944

 Excited State   5:      Singlet-A      2.9868 eV  415.10 nm  f=0.0616  <S**2>=0.000
      88 -> 90         0.66113
      88 -> 91        -0.18475
      89 -> 91        -0.10027

 Excited State   6:      Singlet-A      3.1708 eV  391.02 nm  f=0.0812  <S**2>=0.000
      88 -> 90         0.11737
      89 -> 90        -0.41667
      89 -> 91         0.52147
      89 -> 94        -0.16902

 The electronic state is 1-A.
 Alpha  occ. eigenvalues -- -101.57939 -19.16632 -19.16501 -19.16030 -19.15914
 Alpha  occ. eigenvalues --  -14.51315 -14.50937 -14.38159 -10.30593 -10.30179
 Alpha  occ. eigenvalues --  -10.29390 -10.28651 -10.28526 -10.28358 -10.28250
 Alpha  occ. eigenvalues --  -10.27646 -10.24510 -10.24406 -10.24199 -10.24163
 Alpha  occ. eigenvalues --  -10.22719 -10.22211 -10.22140 -10.21211  -9.49434
 Alpha  occ. eigenvalues --   -7.25856  -7.24871  -7.24824  -1.14563  -1.13343
 Alpha  occ. eigenvalues --   -1.06525  -1.05957  -0.95663  -0.95506  -0.92372
 Alpha  occ. eigenvalues --   -0.88023  -0.86972  -0.86686  -0.82029  -0.80860
 Alpha  occ. eigenvalues --   -0.79010  -0.74876  -0.74557  -0.72921  -0.67472
 Alpha  occ. eigenvalues --   -0.66797  -0.64679  -0.63250  -0.62599  -0.60963
 Alpha  occ. eigenvalues --   -0.56929  -0.55821  -0.54740  -0.53099  -0.52833
 Alpha  occ. eigenvalues --   -0.50874  -0.50518  -0.49517  -0.49026  -0.48792
 Alpha  occ. eigenvalues --   -0.48134  -0.48026  -0.47617  -0.47222  -0.45122
 Alpha  occ. eigenvalues --   -0.44593  -0.44473  -0.43448  -0.43130  -0.42487
 Alpha  occ. eigenvalues --   -0.42450  -0.41753  -0.40367  -0.40225  -0.39770
 Alpha  occ. eigenvalues --   -0.39546  -0.36175  -0.35943  -0.34080  -0.31335
 Alpha  occ. eigenvalues --   -0.30499  -0.29711  -0.29185  -0.28740  -0.28611
 Alpha  occ. eigenvalues --   -0.28450  -0.27560  -0.24508  -0.22819
 Alpha virt. eigenvalues --   -0.11483  -0.10239  -0.06994  -0.05183  -0.03486
 Alpha virt. eigenvalues --   -0.01331  -0.00863   0.00076   0.00343   0.00965
 Alpha virt. eigenvalues --    0.01164   0.01980   0.02317   0.02697   0.02896

 Mulliken charges:
               1
     1  C   -0.675999
     2  C    0.541112
     3  C    0.296525
     4  C   -0.123473
     5  O   -0.430887
     6  C    1.264879
     7  C    0.077241
     8  N   -0.642506
     9  C    0.238118
    10  O   -0.486644
    11  C   -0.185646
    12  C   -0.345656
    13  C   -1.106555
    14  N   -0.433956
    15  O    0.076947
    16  C    0.030928
    17  C   -0.445576
    18  C    0.302718
    19  Cl   0.278265
    20  C   -0.077938
    21  C   -0.481094
    22  C    0.254880
    23  N   -0.466417
    24  O    0.067224
    25  H    0.161857
    26  H    0.190704
    27  H    0.184680
    28  H    0.345998
    29  H    0.363206
    30  H    0.145303
    31  H    0.147457
    32  H    0.227519
    33  H    0.170937
    34  H    0.191305
    35  H    0.159145
    36  H    0.185401
 Sum of Mulliken charges =  -0.00000

 Dipole moment (field-independent basis, Debye):
    X=             -1.4470    Y=             -0.2925    Z=              2.8049  Tot=              3.1697
 Quadrupole moment (field-independent basis, Debye-Ang):
   XX=           -152.3632   YY=           -153.9843   ZZ=           -144.3847
   XY=              5.6601   XZ=              2.2964   YZ=             -7.3480

 Normal termination of Gaussian 16 at Sun Sep 21 20:01:42 2025.
