 Gaussian 16, Revision C.02,
 Gaussian 16:  ES64L-G16RevC.02  7-Dec-2021

 ----------------------------------------------------------
 # td=(50-50,nstates=3) b3lyp/6-31+g(d,p) geom=connectivity
 ----------------------------------------------------------

 -------------------
 Title Card Required
 -------------------
 Symbolic Z-matrix:
 Charge =  0 Multiplicity = 1

                         Standard orientation:
 ---------------------------------------------------------------------
 Center     Atomic      Atomic             Coordinates (Angstroms)
 Number     Number       Type             X           Y           Z
 ---------------------------------------------------------------------
      1          6           0        6.587171    1.934263   -1.912354
      2          6           0        6.686833    0.501349   -1.379657
      3          6           0        6.273622   -0.502164   -2.467754
      4          6           0        8.110267    0.215439   -0.876668
      5          8           0        5.736490    0.486110   -0.281690
      6          6           0        5.602006   -0.703714    0.490569
      7         14           0        4.204358   -0.441950    1.760473
      8          6           0        4.162985   -1.934308    2.918611
      9          6           0        4.456750    1.166982    2.704070
     10          6           0        2.591940   -0.368726    0.854973
     11          6           0        1.517266   -0.329307    0.266011
     12         14           0       -0.088563   -0.264058   -0.627430
     13          6           0       -0.223354    1.352521   -1.581709
     14          6           0       -0.223212   -1.747503   -1.777680
     15          6           0       -1.408133   -0.359858    0.789519
     16          6           0       -2.824078   -0.050695    0.432552
     17          6           0       -3.795672   -0.958328    0.071849
     18          7           0       -3.426162   -2.392439    0.024324
     19          8           0       -3.245615   -2.962964    1.096678
     20          8           0       -3.318184   -2.900872   -1.086967
     21          6           0       -5.160083   -0.621655   -0.267503
     22         17           0       -6.286939   -1.894836   -0.645984
     23          6           0       -5.595427    0.676427   -0.257761
     24          6           0       -4.626555    1.641031    0.101627
     25          6           0       -3.284708    1.315281    0.443291
     26          7           0       -2.589234    2.394733    0.767703
     27          8           0       -3.447954    3.448690    0.645858
     28          7           0       -4.751596    2.971887    0.220072
     29          8           0       -5.662619    3.773487    0.055071
     30          1           0        6.858489    2.649901   -1.130177
     31          1           0        7.257100    2.078758   -2.766177
     32          1           0        5.562596    2.148545   -2.231186
     33          1           0        6.352047   -1.538133   -2.123099
     34          1           0        6.924240   -0.399790   -3.342781
     35          1           0        5.241412   -0.318103   -2.782013
     36          1           0        8.831565    0.354841   -1.688763
     37          1           0        8.373437    0.900247   -0.063759
     38          1           0        8.219710   -0.812153   -0.515631
     39          1           0        5.363066   -1.577004   -0.135809
     40          1           0        6.532834   -0.941657    1.031970
     41          1           0        3.343280   -1.844737    3.639580
     42          1           0        5.099058   -2.016391    3.483319
     43          1           0        4.017316   -2.867712    2.364218
     44          1           0        4.504743    2.011211    2.009864
     45          1           0        3.638380    1.345412    3.409683
     46          1           0        5.395212    1.139075    3.269984
     47          1           0       -1.160474    1.405570   -2.147569
     48          1           0        0.603437    1.426675   -2.296605
     49          1           0       -0.177380    2.218643   -0.915359
     50          1           0        0.575219   -1.702703   -2.526856
     51          1           0       -0.117234   -2.690617   -1.232178
     52          1           0       -1.182670   -1.769539   -2.304672
     53          1           0       -1.325693   -1.354268    1.236661
     54          1           0       -1.070760    0.362091    1.540958
     55          1           0       -6.615822    0.951069   -0.492678
 ---------------------------------------------------------------------

 SCF Done:  E(RB3LYP) =  -2280.98278475     A.U. after   20 cycles

 Excitation energies and oscillator strengths:

 Excited State   1:      Triplet-A      1.2323 eV 1006.09 nm  f=0.0000  <S**2>=2.000
     120 ->121         0.68575
     120 ->122         0.19213
     120 <-121         0.21419
 This state for optimization and/or second-order correction.
 Total Energy, E(TD-HF/TD-DFT) =  -2280.93749735
 Copying the excited state density for this state as the 1-particle RhoCI density.

 Excited State   2:      Triplet-A      2.8092 eV  441.35 nm  f=0.0000  <S**2>=2.000
     104 ->122         0.13126
     107 ->122        -0.23493
     108 ->122        -0.10028
     109 ->122         0.13102
     115 ->121         0.22454
     115 ->122        -0.15140
     116 ->121        -0.14130
     118 ->121        -0.10317
     120 ->121        -0.16923
     120 ->122         0.46879

 Excited State   3:      Triplet-A      2.8293 eV  438.22 nm  f=0.0000  <S**2>=2.000
     104 ->122         0.24065
     105 ->122        -0.13266
     106 ->122        -0.18574
     107 ->121         0.19232
     107 ->122        -0.42481
     108 ->122        -0.22559
     115 ->121        -0.12139
     120 ->122        -0.22901
     107 <-122        -0.11180

 Excited State   4:      Singlet-A      2.9249 eV  423.89 nm  f=0.0457  <S**2>=0.000
     120 ->121         0.56565
     120 ->122        -0.40584

 Excited State   5:      Singlet-A      3.2411 eV  382.53 nm  f=0.1307  <S**2>=0.000
     115 ->122        -0.10289
     120 ->121         0.40673
     120 ->122         0.55051

 Excited State   6:      Singlet-A      3.3238 eV  373.02 nm  f=0.0002  <S**2>=0.000
     119 ->121         0.70181

 The electronic state is 1-A.
 Alpha  occ. eigenvalues -- -101.59302 -66.16140 -66.14467 -19.30827 -19.22763
 Alpha  occ. eigenvalues --  -19.22713 -19.21711 -19.15380 -14.60989 -14.57378
 Alpha  occ. eigenvalues --  -14.44022 -10.31497 -10.30056 -10.29519 -10.28736
 Alpha  occ. eigenvalues --  -10.27973 -10.26114 -10.25034 -10.22187 -10.21346
 Alpha  occ. eigenvalues --  -10.18260 -10.18140 -10.18140 -10.17971 -10.17821
 Alpha  occ. eigenvalues --  -10.17806 -10.17720 -10.17560 -10.17040  -9.50758
 Alpha  occ. eigenvalues --   -7.27216  -7.26179  -7.26135  -5.30342  -5.28793
 Alpha  occ. eigenvalues --   -3.66331  -3.66237  -3.66129  -3.64783  -3.64638
 Alpha  occ. eigenvalues --   -3.64605  -1.26656  -1.24663  -1.14955  -1.09502
 Alpha  occ. eigenvalues --   -1.02623  -0.96369  -0.92156  -0.91477  -0.87436
 Alpha  occ. eigenvalues --   -0.81826  -0.80258  -0.79252  -0.74885  -0.73313
 Alpha  occ. eigenvalues --   -0.71714  -0.71110  -0.69884  -0.69692  -0.69432
 Alpha  occ. eigenvalues --   -0.68723  -0.68698  -0.67201  -0.66769  -0.63347
 Alpha  occ. eigenvalues --   -0.60113  -0.59086  -0.56582  -0.55928  -0.55657
 Alpha  occ. eigenvalues --   -0.54911  -0.54674  -0.54247  -0.52615  -0.50691
 Alpha  occ. eigenvalues --   -0.49071  -0.48860  -0.47759  -0.46913  -0.46658
 Alpha  occ. eigenvalues --   -0.46073  -0.45440  -0.44619  -0.43930  -0.43666
 Alpha  occ. eigenvalues --   -0.42972  -0.42701  -0.42222  -0.42044  -0.41666
 Alpha  occ. eigenvalues --   -0.40800  -0.40709  -0.40103  -0.40055  -0.40032
 Alpha  occ. eigenvalues --   -0.39481  -0.39143  -0.38854  -0.38795  -0.38098
 Alpha  occ. eigenvalues --   -0.37144  -0.36556  -0.35964  -0.35793  -0.35105
 Alpha  occ. eigenvalues --   -0.34714  -0.34478  -0.34063  -0.33846  -0.33148
 Alpha  occ. eigenvalues --   -0.32680  -0.32360  -0.32039  -0.31566  -0.30365
 Alpha  occ. eigenvalues --   -0.29319  -0.27596  -0.27332  -0.26076  -0.24978
 Alpha virt. eigenvalues --   -0.12775  -0.11025  -0.04201  -0.04074  -0.02409
 Alpha virt. eigenvalues --   -0.01818  -0.01492  -0.01239  -0.00880   0.00128
 Alpha virt. eigenvalues --    0.00393   0.00819   0.00981   0.01808   0.01992

 Mulliken charges:
               1
     1  C   -0.428281
     2  C    0.044677
     3  C   -0.424967
     4  C   -0.451462
     5  O   -0.223866
     6  C   -0.418401
     7  Si   1.385654
     8  C   -0.681377
     9  C   -0.682470
    10  C   -0.619278
    11  C   -0.735495
    12  Si   1.198353
    13  C   -0.630118
    14  C   -0.644363
    15  C   -0.122699
    16  C    0.731321
    17  C   -0.232775
    18  N   -0.367133
    19  O    0.049203
    20  O    0.043996
    21  C   -0.582956
    22  Cl   0.321920
    23  C    1.022484
    24  C   -0.748521
    25  C   -0.450951
    26  N   -0.406325
    27  O    0.382254
    28  N   -0.634685
    29  O    0.072844
    30  H    0.154769
    31  H    0.141725
    32  H    0.157018
    33  H    0.143353
    34  H    0.148829
    35  H    0.157269
    36  H    0.149981
    37  H    0.154488
    38  H    0.147547
    39  H    0.131358
    40  H    0.131334
    41  H    0.168854
    42  H    0.161531
    43  H    0.166372
    44  H    0.184972
    45  H    0.164623
    46  H    0.158288
    47  H    0.161849
    48  H    0.169607
    49  H    0.188549
    50  H    0.167297
    51  H    0.175717
    52  H    0.181129
    53  H    0.190347
    54  H    0.195868
    55  H    0.180747
 Sum of Mulliken charges =  -0.00000

 Dipole moment (field-independent basis, Debye):
    X=              2.7804    Y=             -0.8483    Z=             -0.6229  Tot=              2.9729
 Quadrupole moment (field-independent basis, Debye-Ang):
   XX=           -179.9004   YY=           -221.2990   ZZ=           -192.2434
   XY=             -0.6520   XZ=              1.0129   YZ=             -2.3950

 Normal termination of Gaussian 16 at Sun Sep 21 20:29:41 2025.
