 Gaussian 16, Revision C.02,
 Gaussian 16:  ES64L-G16RevC.02  7-Dec-2021

 -----------------------------------------
 # opt b3lyp/6-31+g(d,p) geom=connectivity
 -----------------------------------------

 -------------------
 Title Card Required
 -------------------
 Symbolic Z-matrix:
 Charge =  0 Multiplicity = 1

 SCF Done:  E(RB3LYP) =  -1066.64276607     A.U. after   22 cycles
 SCF Done:  E(RB3LYP) =  -1066.84979606     A.U. after   19 cycles
 SCF Done:  E(RB3LYP) =  -1066.91450749     A.U. after   17 cycles
 SCF Done:  E(RB3LYP) =  -1066.93812842     A.U. after   19 cycles
 SCF Done:  E(RB3LYP) =  -1066.94067696     A.U. after   16 cycles
 SCF Done:  E(RB3LYP) =  -1066.94105696     A.U. after   15 cycles
 SCF Done:  E(RB3LYP) =  -1066.94114361     A.U. after   14 cycles
 SCF Done:  E(RB3LYP) =  -1066.94117644     A.U. after   14 cycles
 SCF Done:  E(RB3LYP) =  -1066.94118904     A.U. after   14 cycles
 SCF Done:  E(RB3LYP) =  -1066.94119429     A.U. after   14 cycles
 SCF Done:  E(RB3LYP) =  -1066.94120023     A.U. after   13 cycles
 SCF Done:  E(RB3LYP) =  -1066.94120051     A.U. after   12 cycles
 SCF Done:  E(RB3LYP) =  -1066.94120064     A.U. after   11 cycles
 SCF Done:  E(RB3LYP) =  -1066.94120073     A.U. after   11 cycles
 SCF Done:  E(RB3LYP) =  -1066.94120086     A.U. after   11 cycles
 SCF Done:  E(RB3LYP) =  -1066.94120107     A.U. after   13 cycles
 SCF Done:  E(RB3LYP) =  -1066.94120132     A.U. after   13 cycles
 SCF Done:  E(RB3LYP) =  -1066.94120161     A.U. after   13 cycles
 SCF Done:  E(RB3LYP) =  -1066.94120180     A.U. after   13 cycles
 SCF Done:  E(RB3LYP) =  -1066.94120185     A.U. after   11 cycles
 Optimization completed.
    -- Stationary point found.

                         Standard orientation:
 ---------------------------------------------------------------------
 Center     Atomic      Atomic             Coordinates (Angstroms)
 Number     Number       Type             X           Y           Z
 ---------------------------------------------------------------------
      1          6           0       -7.879917   -0.768993   -1.368313
      2          6           0       -6.924194   -1.116227   -0.221465
      3          6           0       -5.470972   -0.711108   -0.504964
      4          6           0       -4.526861   -1.059936    0.650962
      5          6           0       -3.058085   -0.720202    0.467957
      6          6           0       -2.560938   -0.040149   -0.652386
      7          6           0       -1.206615    0.274182   -0.764135
      8          6           0       -0.300286   -0.093207    0.240979
      9          6           0        1.152778    0.172128    0.084363
     10          6           0        2.018447   -0.887152    0.068821
     11          6           0        3.428618   -0.746091   -0.189489
     12          6           0        4.281260   -1.846295   -0.170966
     13          6           0        5.671884   -1.725261   -0.468412
     14          7           0        6.806118   -1.617411   -0.712290
     15          6           0        3.813969   -3.155896    0.150960
     16          7           0        3.424362   -4.221648    0.415287
     17          6           0        3.919956    0.573809   -0.515279
     18          6           0        3.089130    1.642933   -0.485957
     19          6           0        1.694056    1.523647   -0.096725
     20          6           0        0.981415    2.692157    0.156200
     21          6           0       -0.318974    2.788468    0.742917
     22          7           0       -1.341502    3.007091    1.256825
     23          6           0        1.576615    3.973436   -0.083973
     24          7           0        2.048216    5.018990   -0.286500
     25          6           0       -0.786517   -0.796518    1.356325
     26          6           0       -2.141212   -1.092654    1.466147
     27          1           0       -8.906745   -1.070228   -1.135755
     28          1           0       -7.886380    0.309320   -1.566254
     29          1           0       -7.586868   -1.274891   -2.295860
     30          1           0       -6.967019   -2.196177   -0.023735
     31          1           0       -7.263834   -0.623065    0.699651
     32          1           0       -5.434025    0.368813   -0.702512
     33          1           0       -5.132781   -1.208822   -1.424480
     34          1           0       -4.604965   -2.135364    0.864321
     35          1           0       -4.879715   -0.555821    1.562072
     36          1           0       -3.231112    0.256027   -1.451700
     37          1           0       -0.852932    0.798565   -1.647808
     38          1           0        1.618935   -1.886499    0.207142
     39          1           0        4.967016    0.702540   -0.768097
     40          1           0        3.480156    2.630040   -0.706954
     41          1           0       -0.103198   -1.088893    2.148555
     42          1           0       -2.498236   -1.621118    2.346754
 ---------------------------------------------------------------------

 The electronic state is 1-A.
 Alpha  occ. eigenvalues --  -14.38648 -14.38420 -14.38398 -14.38089 -10.31746
 Alpha  occ. eigenvalues --  -10.31195 -10.29659 -10.29146 -10.27787 -10.27568
 Alpha  occ. eigenvalues --  -10.27557 -10.27419 -10.27389 -10.26353 -10.26229
 Alpha  occ. eigenvalues --  -10.25736 -10.23662 -10.22847 -10.22458 -10.22412
 Alpha  occ. eigenvalues --  -10.21680 -10.21637 -10.20875 -10.19968 -10.19687
 Alpha  occ. eigenvalues --  -10.18687  -0.96412  -0.95931  -0.94353  -0.94273
 Alpha  occ. eigenvalues --   -0.93426  -0.89480  -0.88622  -0.84524  -0.83602
 Alpha  occ. eigenvalues --   -0.81503  -0.78326  -0.77507  -0.76547  -0.73266
 Alpha  occ. eigenvalues --   -0.69012  -0.68489  -0.65839  -0.64068  -0.63152
 Alpha  occ. eigenvalues --   -0.61445  -0.59743  -0.59251  -0.58707  -0.57223
 Alpha  occ. eigenvalues --   -0.52781  -0.51004  -0.49568  -0.49070  -0.48992
 Alpha  occ. eigenvalues --   -0.48384  -0.46633  -0.46500  -0.45145  -0.45074
 Alpha  occ. eigenvalues --   -0.44530  -0.43930  -0.43241  -0.41827  -0.41194
 Alpha  occ. eigenvalues --   -0.40764  -0.40671  -0.40226  -0.40097  -0.39736
 Alpha  occ. eigenvalues --   -0.39309  -0.38537  -0.38131  -0.38004  -0.37977
 Alpha  occ. eigenvalues --   -0.37827  -0.37224  -0.36936  -0.36769  -0.35879
 Alpha  occ. eigenvalues --   -0.34596  -0.34428  -0.34141  -0.34068  -0.32559
 Alpha  occ. eigenvalues --   -0.28124  -0.27671  -0.26135
 Alpha virt. eigenvalues --   -0.17808  -0.07459  -0.07037  -0.04756  -0.04026
 Alpha virt. eigenvalues --   -0.03620  -0.02723  -0.01799  -0.00300  -0.00190
 Alpha virt. eigenvalues --    0.00349   0.00547   0.00700   0.00739   0.01372

 Mulliken charges:
               1
     1  C   -0.721282
     2  C   -0.236788
     3  C   -0.215388
     4  C   -0.660181
     5  C    0.777725
     6  C   -0.709778
     7  C   -0.572483
     8  C    0.284521
     9  C   -0.184173
    10  C   -0.500156
    11  C    1.618498
    12  C    0.867232
    13  C   -0.215977
    14  N   -0.459746
    15  C   -0.443640
    16  N   -0.461052
    17  C   -0.848649
    18  C   -0.620215
    19  C    0.721849
    20  C    1.275461
    21  C   -0.358200
    22  N   -0.384954
    23  C   -0.125836
    24  N   -0.455421
    25  C    0.006140
    26  C    0.261644
    27  H    0.147422
    28  H    0.147457
    29  H    0.146410
    30  H    0.139389
    31  H    0.141080
    32  H    0.146677
    33  H    0.144511
    34  H    0.159913
    35  H    0.167913
    36  H    0.128502
    37  H    0.122991
    38  H    0.167249
    39  H    0.171792
    40  H    0.170840
    41  H    0.129931
    42  H    0.128773
 Sum of Mulliken charges =  -0.00000

 Dipole moment (field-independent basis, Debye):
    X=             -4.0428    Y=             -0.8737    Z=             -0.7362  Tot=              4.2011
 Quadrupole moment (field-independent basis, Debye-Ang):
   XX=           -170.2017   YY=           -193.6890   ZZ=           -151.2347
   XY=             17.8396   XZ=              3.8044   YZ=             -4.2609

 1\1\GINC-N2\FOpt\RB3LYP\6-31+G(d,p)\C22H16N4\HPCMGAC13\09-Aug-2025\0\\
 # opt b3lyp/6-31+g(d,p) geom=connectivity\\Title Card Required\\0,1\C,
 5.7902282398,3.5934729041,-2.2965392576\C,4.3475485838,3.907991599,-1.
 8854555067\C,3.5114340451,2.6500561597,-1.6118508467\C,2.0727345564,2.
 9785451107,-1.1978097941\C,1.1497477466,1.804648768,-0.9216308171\C,1.
 5764257773,0.4696975905,-0.9470246846\C,0.6978336028,-0.5748538601,-0.
 6598440442\C,-0.6447003922,-0.3167372156,-0.3473710121\C,-1.5973641762
 ,-1.4333061388,-0.119267921\C,-2.6773623705,-1.5585041832,-0.949707064

 Normal termination of Gaussian 16 at Sat Aug  9 16:37:00 2025.
