 Gaussian 16, Revision C.02,
 Gaussian 16:  ES64L-G16RevC.02  7-Dec-2021

 ----------------------------------------------------------
 # td=(50-50,nstates=3) b3lyp/6-31+g(d,p) geom=connectivity
 ----------------------------------------------------------

 -------------------
 Title Card Required
 -------------------
 Symbolic Z-matrix:
 Charge =  0 Multiplicity = 1

                         Standard orientation:
 ---------------------------------------------------------------------
 Center     Atomic      Atomic             Coordinates (Angstroms)
 Number     Number       Type             X           Y           Z
 ---------------------------------------------------------------------
      1          6           0       -7.879917   -0.768993   -1.368313
      2          6           0       -6.924194   -1.116227   -0.221465
      3          6           0       -5.470972   -0.711108   -0.504964
      4          6           0       -4.526861   -1.059936    0.650962
      5          6           0       -3.058085   -0.720202    0.467957
      6          6           0       -2.560938   -0.040149   -0.652386
      7          6           0       -1.206615    0.274182   -0.764135
      8          6           0       -0.300286   -0.093207    0.240979
      9          6           0        1.152778    0.172128    0.084363
     10          6           0        2.018447   -0.887152    0.068821
     11          6           0        3.428618   -0.746091   -0.189489
     12          6           0        4.281260   -1.846295   -0.170966
     13          6           0        5.671884   -1.725261   -0.468412
     14          7           0        6.806118   -1.617411   -0.712290
     15          6           0        3.813969   -3.155896    0.150960
     16          7           0        3.424362   -4.221648    0.415287
     17          6           0        3.919956    0.573809   -0.515279
     18          6           0        3.089130    1.642933   -0.485957
     19          6           0        1.694056    1.523647   -0.096725
     20          6           0        0.981415    2.692157    0.156200
     21          6           0       -0.318974    2.788468    0.742917
     22          7           0       -1.341502    3.007091    1.256825
     23          6           0        1.576615    3.973436   -0.083973
     24          7           0        2.048216    5.018990   -0.286500
     25          6           0       -0.786517   -0.796518    1.356325
     26          6           0       -2.141212   -1.092654    1.466147
     27          1           0       -8.906745   -1.070228   -1.135755
     28          1           0       -7.886380    0.309320   -1.566254
     29          1           0       -7.586868   -1.274891   -2.295860
     30          1           0       -6.967019   -2.196177   -0.023735
     31          1           0       -7.263834   -0.623065    0.699651
     32          1           0       -5.434025    0.368813   -0.702512
     33          1           0       -5.132781   -1.208822   -1.424480
     34          1           0       -4.604965   -2.135364    0.864321
     35          1           0       -4.879715   -0.555821    1.562072
     36          1           0       -3.231112    0.256027   -1.451700
     37          1           0       -0.852932    0.798565   -1.647808
     38          1           0        1.618935   -1.886499    0.207142
     39          1           0        4.967016    0.702540   -0.768097
     40          1           0        3.480156    2.630040   -0.706954
     41          1           0       -0.103198   -1.088893    2.148555
     42          1           0       -2.498236   -1.621118    2.346754
 ---------------------------------------------------------------------

 SCF Done:  E(RB3LYP) =  -1066.94120185     A.U. after   19 cycles

 Excitation energies and oscillator strengths:

 Excited State   1:      Triplet-A      0.6273 eV 1976.46 nm  f=0.0000  <S**2>=2.000
      87 -> 89         0.49944
      88 -> 89         0.60421
      87 <- 89         0.25336
      88 <- 89         0.26050
 This state for optimization and/or second-order correction.
 Total Energy, E(TD-HF/TD-DFT) =  -1066.91814881
 Copying the excited state density for this state as the 1-particle RhoCI density.

 Excited State   2:      Triplet-A      1.7266 eV  718.07 nm  f=0.0000  <S**2>=2.000
      85 -> 89         0.12372
      87 -> 89         0.53288
      88 -> 89        -0.43477

 Excited State   3:      Singlet-A      1.8450 eV  672.01 nm  f=0.0585  <S**2>=0.000
      87 -> 89        -0.36950
      88 -> 89         0.60156

 Excited State   4:      Triplet-A      2.1862 eV  567.12 nm  f=0.0000  <S**2>=2.000
      86 -> 89         0.69683
      87 -> 89         0.11201

 Excited State   5:      Singlet-A      2.2187 eV  558.81 nm  f=0.0049  <S**2>=0.000
      86 -> 89         0.69425
      87 -> 89         0.12346

 Excited State   6:      Singlet-A      2.9257 eV  423.78 nm  f=0.9006  <S**2>=0.000
      86 -> 89        -0.12996
      87 -> 89         0.59559
      88 -> 89         0.37882
      87 <- 89        -0.11788
      88 <- 89        -0.11446

 The electronic state is 1-A.
 Alpha  occ. eigenvalues --  -14.38648 -14.38420 -14.38398 -14.38089 -10.31746
 Alpha  occ. eigenvalues --  -10.31195 -10.29659 -10.29146 -10.27787 -10.27568
 Alpha  occ. eigenvalues --  -10.27557 -10.27419 -10.27389 -10.26353 -10.26229
 Alpha  occ. eigenvalues --  -10.25736 -10.23662 -10.22847 -10.22458 -10.22412
 Alpha  occ. eigenvalues --  -10.21680 -10.21637 -10.20875 -10.19968 -10.19687
 Alpha  occ. eigenvalues --  -10.18687  -0.96412  -0.95931  -0.94353  -0.94273
 Alpha  occ. eigenvalues --   -0.93426  -0.89480  -0.88622  -0.84524  -0.83602
 Alpha  occ. eigenvalues --   -0.81503  -0.78326  -0.77507  -0.76547  -0.73266
 Alpha  occ. eigenvalues --   -0.69012  -0.68489  -0.65839  -0.64068  -0.63152
 Alpha  occ. eigenvalues --   -0.61445  -0.59743  -0.59251  -0.58707  -0.57223
 Alpha  occ. eigenvalues --   -0.52781  -0.51004  -0.49568  -0.49070  -0.48992
 Alpha  occ. eigenvalues --   -0.48384  -0.46633  -0.46500  -0.45145  -0.45074
 Alpha  occ. eigenvalues --   -0.44530  -0.43930  -0.43241  -0.41827  -0.41194
 Alpha  occ. eigenvalues --   -0.40764  -0.40671  -0.40226  -0.40097  -0.39736
 Alpha  occ. eigenvalues --   -0.39309  -0.38537  -0.38131  -0.38004  -0.37977
 Alpha  occ. eigenvalues --   -0.37827  -0.37224  -0.36936  -0.36769  -0.35879
 Alpha  occ. eigenvalues --   -0.34596  -0.34428  -0.34141  -0.34068  -0.32559
 Alpha  occ. eigenvalues --   -0.28124  -0.27671  -0.26135
 Alpha virt. eigenvalues --   -0.17808  -0.07459  -0.07037  -0.04756  -0.04026
 Alpha virt. eigenvalues --   -0.03620  -0.02723  -0.01799  -0.00300  -0.00190
 Alpha virt. eigenvalues --    0.00349   0.00547   0.00700   0.00739   0.01372

 Mulliken charges:
               1
     1  C   -0.721282
     2  C   -0.236788
     3  C   -0.215388
     4  C   -0.660181
     5  C    0.777722
     6  C   -0.709777
     7  C   -0.572483
     8  C    0.284521
     9  C   -0.184171
    10  C   -0.500156
    11  C    1.618499
    12  C    0.867230
    13  C   -0.215979
    14  N   -0.459745
    15  C   -0.443640
    16  N   -0.461052
    17  C   -0.848648
    18  C   -0.620214
    19  C    0.721848
    20  C    1.275461
    21  C   -0.358200
    22  N   -0.384954
    23  C   -0.125837
    24  N   -0.455421
    25  C    0.006140
    26  C    0.261646
    27  H    0.147422
    28  H    0.147457
    29  H    0.146410
    30  H    0.139389
    31  H    0.141080
    32  H    0.146677
    33  H    0.144511
    34  H    0.159913
    35  H    0.167913
    36  H    0.128502
    37  H    0.122991
    38  H    0.167249
    39  H    0.171792
    40  H    0.170840
    41  H    0.129931
    42  H    0.128773
 Sum of Mulliken charges =  -0.00000

 Dipole moment (field-independent basis, Debye):
    X=             -4.0428    Y=             -0.8737    Z=             -0.7362  Tot=              4.2011
 Quadrupole moment (field-independent basis, Debye-Ang):
   XX=           -170.2016   YY=           -193.6890   ZZ=           -151.2347
   XY=             17.8396   XZ=              3.8044   YZ=             -4.2609

 Normal termination of Gaussian 16 at Tue Aug 12 12:02:08 2025.
