 Gaussian 16, Revision C.02,
 Gaussian 16:  ES64L-G16RevC.02  7-Dec-2021

 ----------------------------------------------------------
 # td=(50-50,nstates=3) b3lyp/6-31+g(d,p) geom=connectivity
 ----------------------------------------------------------

 -------------------
 Title Card Required
 -------------------
 Symbolic Z-matrix:
 Charge =  0 Multiplicity = 1

                         Standard orientation:
 ---------------------------------------------------------------------
 Center     Atomic      Atomic             Coordinates (Angstroms)
 Number     Number       Type             X           Y           Z
 ---------------------------------------------------------------------
      1          6           0       -2.337119   -3.314738   -1.893098
      2          7           0       -2.103886   -2.003686   -1.320576
      3          6           0       -2.737078   -0.837463   -1.959627
      4          6           0       -2.478921    0.332485   -0.972258
      5          6           0       -3.574694    1.401688   -1.017435
      6          6           0       -1.079256    0.972403   -1.300643
      7          6           0       -0.489777    1.854346   -0.254071
      8          6           0       -0.164535    3.205739   -0.351586
      9          8           0       -0.411228    4.100731   -1.139399
     10          8           0        0.722574    3.518083    0.798162
     11          7           0        0.648409    2.452585    1.707848
     12          7           0        0.325797    1.261471    0.828330
     13          6           0        1.557671    0.525571    0.465818
     14          6           0        1.788285   -0.711857    1.058683
     15          6           0        2.944961   -1.423927    0.734581
     16          6           0        3.848794   -0.870546   -0.171981
     17         17           0        5.304372   -1.757452   -0.584734
     18          6           0        3.613477    0.373445   -0.764920
     19          6           0        2.452156    1.076115   -0.449218
     20          6           0       -2.401469   -0.437741    0.339330
     21          6           0       -2.493483   -0.004055    1.657166
     22          6           0       -2.294751   -0.922271    2.708045
     23          6           0       -2.025067   -2.262718    2.414845
     24          6           0       -1.957453   -2.721176    1.090894
     25          6           0       -2.144364   -1.796908    0.055019
     26          1           0       -2.141944   -3.276705   -2.968238
     27          1           0       -1.651168   -4.046449   -1.457350
     28          1           0       -3.371488   -3.667252   -1.737419
     29          1           0       -2.303719   -0.656839   -2.949520
     30          1           0       -3.821108   -1.009606   -2.081586
     31          1           0       -3.670469    1.812800   -2.028828
     32          1           0       -4.544533    0.991117   -0.717648
     33          1           0       -3.327646    2.234603   -0.352108
     34          1           0       -0.388330    0.154186   -1.556550
     35          1           0       -1.192579    1.579026   -2.208022
     36          1           0        1.073010   -1.132438    1.761143
     37          1           0        3.137993   -2.394132    1.177795
     38          1           0        4.328972    0.785659   -1.467273
     39          1           0        2.247175    2.036309   -0.908109
     40          1           0       -2.743798    1.032086    1.872711
     41          1           0       -2.382212   -0.596981    3.740219
     42          1           0       -1.889930   -2.972528    3.226303
     43          1           0       -1.774857   -3.771100    0.885917
     44          1           0       -0.245161    0.635693    1.414110
     45          1           0       -0.259796    2.585793    2.178344
 ---------------------------------------------------------------------

 SCF Done:  E(RB3LYP) =  -1510.89164247     A.U. after   18 cycles

 Excitation energies and oscillator strengths:

 Excited State   1:      Triplet-A      2.8173 eV  440.08 nm  f=0.0000  <S**2>=2.000
      94 -> 95         0.69254
 This state for optimization and/or second-order correction.
 Total Energy, E(TD-HF/TD-DFT) =  -1510.78810865
 Copying the excited state density for this state as the 1-particle RhoCI density.

 Excited State   2:      Singlet-A      2.9266 eV  423.64 nm  f=0.0029  <S**2>=0.000
      94 -> 95         0.70126

 Excited State   3:      Triplet-A      3.1764 eV  390.33 nm  f=0.0000  <S**2>=2.000
      94 -> 96         0.70110

 Excited State   4:      Singlet-A      3.2353 eV  383.23 nm  f=0.0134  <S**2>=0.000
      94 -> 96         0.70469

 Excited State   5:      Triplet-A      3.3283 eV  372.52 nm  f=0.0000  <S**2>=2.000
      93 -> 95         0.26633
      93 -> 97         0.47939
      93 -> 98        -0.11262
      94 -> 97         0.39509

 Excited State   6:      Singlet-A      3.6490 eV  339.77 nm  f=0.0215  <S**2>=0.000
      93 -> 95         0.12480
      94 -> 97         0.69170

 The electronic state is 1-A.
 Alpha  occ. eigenvalues -- -101.57382 -19.20487 -19.10917 -14.49730 -14.45741
 Alpha  occ. eigenvalues --  -14.36915 -10.28510 -10.28497 -10.27097 -10.24233
 Alpha  occ. eigenvalues --  -10.24150 -10.23731 -10.23549 -10.23492 -10.23302
 Alpha  occ. eigenvalues --  -10.23083 -10.21786 -10.21261 -10.21216 -10.20846
 Alpha  occ. eigenvalues --  -10.20727 -10.20612 -10.20211 -10.20057 -10.18275
 Alpha  occ. eigenvalues --   -9.48891  -7.25305  -7.24325  -7.24287  -1.13777
 Alpha  occ. eigenvalues --   -1.02537  -0.99824  -0.97731  -0.91977  -0.86830
 Alpha  occ. eigenvalues --   -0.86527  -0.83650  -0.81744  -0.79561  -0.77809
 Alpha  occ. eigenvalues --   -0.76398  -0.75515  -0.73213  -0.72075  -0.68804
 Alpha  occ. eigenvalues --   -0.66815  -0.66313  -0.63459  -0.63308  -0.60075
 Alpha  occ. eigenvalues --   -0.59721  -0.58948  -0.57339  -0.55585  -0.53112
 Alpha  occ. eigenvalues --   -0.51545  -0.51055  -0.50176  -0.49604  -0.49150
 Alpha  occ. eigenvalues --   -0.48507  -0.47803  -0.46673  -0.46097  -0.45336
 Alpha  occ. eigenvalues --   -0.44795  -0.44280  -0.42744  -0.42541  -0.42301
 Alpha  occ. eigenvalues --   -0.41727  -0.41288  -0.40554  -0.40093  -0.39995
 Alpha  occ. eigenvalues --   -0.39471  -0.38929  -0.38510  -0.37818  -0.37271
 Alpha  occ. eigenvalues --   -0.36085  -0.35130  -0.34561  -0.34226  -0.33538
 Alpha  occ. eigenvalues --   -0.33179  -0.30901  -0.29722  -0.29297  -0.27625
 Alpha  occ. eigenvalues --   -0.27056  -0.25235  -0.21470  -0.19521
 Alpha virt. eigenvalues --   -0.05952  -0.05209  -0.03537  -0.02012  -0.01777
 Alpha virt. eigenvalues --   -0.00745  -0.00459   0.00266   0.00534   0.01441
 Alpha virt. eigenvalues --    0.01799   0.02096   0.02599   0.02633   0.03233

 Mulliken charges:
               1
     1  C   -0.186856
     2  N    0.062787
     3  C   -0.196599
     4  C    0.340103
     5  C   -0.576073
     6  C   -0.111006
     7  C   -0.499937
     8  C    0.605698
     9  O   -0.517678
    10  O   -0.079092
    11  N   -0.185675
    12  N   -0.037007
    13  C   -1.175096
    14  C    0.435821
    15  C   -0.427821
    16  C    0.158748
    17  Cl   0.256026
    18  C   -0.261137
    19  C    0.129577
    20  C    0.061034
    21  C   -0.432401
    22  C   -0.306660
    23  C   -0.235468
    24  C   -0.075130
    25  C   -0.071240
    26  H    0.146632
    27  H    0.143348
    28  H    0.145882
    29  H    0.142943
    30  H    0.138070
    31  H    0.150708
    32  H    0.145896
    33  H    0.166862
    34  H    0.148552
    35  H    0.176087
    36  H    0.135419
    37  H    0.152620
    38  H    0.158895
    39  H    0.171528
    40  H    0.133002
    41  H    0.125285
    42  H    0.122426
    43  H    0.117745
    44  H    0.371116
    45  H    0.332066
 Sum of Mulliken charges =  -0.00000

 Dipole moment (field-independent basis, Debye):
    X=             -1.3189    Y=             -7.3155    Z=              1.4320  Tot=              7.5701
 Quadrupole moment (field-independent basis, Debye-Ang):
   XX=           -157.5258   YY=           -180.6742   ZZ=           -147.7884
   XY=              2.5272   XZ=             -0.6836   YZ=              7.2553

 Normal termination of Gaussian 16 at Sun Sep 21 20:55:19 2025.
