 Gaussian 16, Revision C.02,
 Gaussian 16:  ES64L-G16RevC.02  7-Dec-2021

 ----------------------------------------------------------
 # td=(50-50,nstates=3) b3lyp/6-31+g(d,p) geom=connectivity
 ----------------------------------------------------------

 -------------------
 Title Card Required
 -------------------
 Symbolic Z-matrix:
 Charge =  0 Multiplicity = 1

                         Standard orientation:
 ---------------------------------------------------------------------
 Center     Atomic      Atomic             Coordinates (Angstroms)
 Number     Number       Type             X           Y           Z
 ---------------------------------------------------------------------
      1          6           0       -2.901993   -2.722679   -0.766647
      2          8           0       -3.436803   -1.622015   -0.040871
      3          6           0       -2.682261   -0.490782    0.087294
      4          6           0       -3.270773    0.553118    0.821500
      5          6           0       -2.575543    1.741167    0.999272
      6          6           0       -1.293206    1.914646    0.456777
      7          6           0       -0.709214    0.878036   -0.268924
      8          6           0        0.693173    0.984933   -0.883783
      9          6           0        1.219723    2.360674   -0.853634
     10          7           0        1.651509    3.438767   -0.835597
     11          6           0        1.710252    0.021053   -0.254344
     12          6           0        2.445986   -0.847478   -1.067212
     13          6           0        3.377874   -1.726467   -0.505795
     14          6           0        3.582451   -1.738512    0.874928
     15          6           0        2.851120   -0.869144    1.691447
     16          6           0        1.918901    0.004294    1.130875
     17          6           0       -1.404947   -0.329051   -0.455952
     18          1           0       -3.666402   -3.499653   -0.732554
     19          1           0       -2.703877   -2.453457   -1.811829
     20          1           0       -1.980747   -3.097375   -0.303490
     21          1           0       -4.263558    0.406317    1.233713
     22          1           0       -3.031516    2.549059    1.563901
     23          1           0       -0.767750    2.853596    0.595105
     24          1           0        0.610896    0.723761   -1.946990
     25          1           0        2.297025   -0.836016   -2.144284
     26          1           0        3.942110   -2.396126   -1.148297
     27          1           0        4.306811   -2.418441    1.313527
     28          1           0        3.006497   -0.872005    2.766331
     29          1           0        1.349310    0.672499    1.770417
     30          1           0       -0.934207   -1.130259   -1.014216
 ---------------------------------------------------------------------

 SCF Done:  E(RB3LYP) =  -709.417075752     A.U. after   16 cycles

 Excitation energies and oscillator strengths:

 Excited State   1:      Triplet-A      3.6526 eV  339.44 nm  f=0.0000  <S**2>=2.000
      56 -> 61         0.19918
      56 -> 62         0.13722
      58 -> 61         0.30205
      58 -> 62         0.19044
      59 -> 60         0.22987
      59 -> 61        -0.23446
      59 -> 63        -0.17124
      59 -> 64         0.36792
 This state for optimization and/or second-order correction.
 Total Energy, E(TD-HF/TD-DFT) =  -709.282846057
 Copying the excited state density for this state as the 1-particle RhoCI density.

 Excited State   2:      Triplet-A      3.7002 eV  335.07 nm  f=0.0000  <S**2>=2.000
      56 -> 60        -0.32436
      56 -> 61        -0.12351
      57 -> 60        -0.12115
      57 -> 61         0.23263
      57 -> 62        -0.34110
      57 -> 64         0.12021
      58 -> 60         0.36420
      58 -> 61         0.13556

 Excited State   3:      Triplet-A      4.0664 eV  304.90 nm  f=0.0000  <S**2>=2.000
      59 -> 61         0.50768
      59 -> 62         0.38371
      59 -> 63        -0.18631
      59 -> 64         0.10415

 Excited State   4:      Singlet-A      4.8661 eV  254.79 nm  f=0.0470  <S**2>=0.000
      56 -> 64        -0.10767
      58 -> 60        -0.12409
      58 -> 64        -0.17555
      59 -> 60        -0.13273
      59 -> 61         0.50571
      59 -> 62         0.36646

 Excited State   5:      Singlet-A      4.9288 eV  251.55 nm  f=0.0043  <S**2>=0.000
      59 -> 60         0.66189
      59 -> 61         0.22551

 Excited State   6:      Singlet-A      5.0365 eV  246.17 nm  f=0.0062  <S**2>=0.000
      59 -> 60         0.18320
      59 -> 61        -0.36192
      59 -> 62         0.56892

 The electronic state is 1-A.
 Alpha  occ. eigenvalues --  -19.19816 -14.34517 -10.26642 -10.25910 -10.25437
 Alpha  occ. eigenvalues --  -10.23787 -10.22627 -10.22587 -10.21280 -10.21119
 Alpha  occ. eigenvalues --  -10.21027 -10.20966 -10.20914 -10.20720 -10.20611
 Alpha  occ. eigenvalues --  -10.20082 -10.19945  -1.08100  -0.91702  -0.88413
 Alpha  occ. eigenvalues --   -0.86865  -0.82175  -0.77014  -0.76422  -0.76136
 Alpha  occ. eigenvalues --   -0.73097  -0.70487  -0.62904  -0.62116  -0.61268
 Alpha  occ. eigenvalues --   -0.60740  -0.55282  -0.53937  -0.51568  -0.49780
 Alpha  occ. eigenvalues --   -0.48722  -0.48445  -0.48174  -0.47247  -0.45518
 Alpha  occ. eigenvalues --   -0.44448  -0.43883  -0.43255  -0.42576  -0.39321
 Alpha  occ. eigenvalues --   -0.38545  -0.38302  -0.37540  -0.37164  -0.36564
 Alpha  occ. eigenvalues --   -0.36105  -0.34960  -0.33982  -0.32984  -0.32896
 Alpha  occ. eigenvalues --   -0.27448  -0.27123  -0.25844  -0.23769
 Alpha virt. eigenvalues --   -0.03509  -0.03261  -0.03164  -0.00914  -0.00716
 Alpha virt. eigenvalues --    0.00489   0.01047   0.01222   0.02333   0.02367
 Alpha virt. eigenvalues --    0.02633   0.03129   0.03575   0.03852   0.03998

 Mulliken charges:
               1
     1  C   -0.142650
     2  O   -0.351448
     3  C   -0.351873
     4  C    0.193648
     5  C   -0.328529
     6  C   -0.408336
     7  C    0.361814
     8  C    0.054133
     9  C    0.052652
    10  N   -0.450664
    11  C    0.129384
    12  C   -0.155126
    13  C   -0.301713
    14  C   -0.037790
    15  C   -0.248190
    16  C   -0.018386
    17  C    0.242925
    18  H    0.151326
    19  H    0.143987
    20  H    0.147283
    21  H    0.134177
    22  H    0.131971
    23  H    0.135254
    24  H    0.170086
    25  H    0.111974
    26  H    0.130046
    27  H    0.128564
    28  H    0.131825
    29  H    0.129288
    30  H    0.114369
 Sum of Mulliken charges =  -0.00000

 Dipole moment (field-independent basis, Debye):
    X=             -0.7671    Y=             -4.8624    Z=             -0.2084  Tot=              4.9269
 Quadrupole moment (field-independent basis, Debye-Ang):
   XX=           -101.6593   YY=           -108.5036   ZZ=            -94.3146
   XY=            -10.8300   XZ=              1.9493   YZ=              8.2900

 Normal termination of Gaussian 16 at Tue Aug 12 12:26:12 2025.
