 Gaussian 16, Revision C.02,
 Gaussian 16:  ES64L-G16RevC.02  7-Dec-2021

 ----------------------------------------------------------
 # td=(50-50,nstates=3) b3lyp/6-31+g(d,p) geom=connectivity
 ----------------------------------------------------------

 -------------------
 Title Card Required
 -------------------
 Symbolic Z-matrix:
 Charge =  0 Multiplicity = 1

                         Standard orientation:
 ---------------------------------------------------------------------
 Center     Atomic      Atomic             Coordinates (Angstroms)
 Number     Number       Type             X           Y           Z
 ---------------------------------------------------------------------
      1          6           0        0.902574    4.009972    0.821555
      2          6           0       -0.292356    3.428689    0.692531
      3          6           0       -0.790436    2.809344   -0.581435
      4          8           0       -1.350008    1.486577   -0.371165
      5          6           0       -0.570480    0.409630   -0.209021
      6          6           0        0.798015    0.414017   -0.212896
      7          6           0        1.547549   -0.798924   -0.059253
      8          6           0        2.941719   -0.791903   -0.072875
      9          6           0        3.707183   -1.985553    0.079228
     10          7           0        4.327814   -2.963955    0.204047
     11          6           0        3.673686    0.420543   -0.243363
     12          7           0        4.245177    1.426098   -0.386444
     13          6           0        0.820664   -2.040358    0.111734
     14          6           0       -0.533420   -2.052668    0.125731
     15          6           0       -1.314795   -0.842011   -0.029995
     16          6           0       -2.700924   -0.903861   -0.007854
     17          6           0       -3.605281    0.195128   -0.146931
     18          7           0       -4.436502    1.005002   -0.246297
     19          6           0       -3.361606   -2.162409    0.171782
     20          7           0       -3.901215   -3.184001    0.317333
     21          1           0        1.198518    4.493231    1.747430
     22          1           0        1.625351    4.032981    0.008693
     23          1           0       -0.997291    3.422181    1.522317
     24          1           0       -1.643904    3.365587   -0.977994
     25          1           0       -0.013987    2.763837   -1.353407
     26          1           0        1.339190    1.343580   -0.317511
     27          1           0        1.376196   -2.964223    0.229751
     28          1           0       -1.063488   -2.989617    0.255922
 ---------------------------------------------------------------------

 SCF Done:  E(RB3LYP) =  -870.538053520     A.U. after   18 cycles

 Excitation energies and oscillator strengths:

 Excited State   1:      Triplet-A      0.6956 eV 1782.29 nm  f=0.0000  <S**2>=2.000
      66 -> 68        -0.12296
      67 -> 68         0.76395
      67 <- 68         0.32444
 This state for optimization and/or second-order correction.
 Total Energy, E(TD-HF/TD-DFT) =  -870.512489035
 Copying the excited state density for this state as the 1-particle RhoCI density.

 Excited State   2:      Triplet-A      2.0794 eV  596.26 nm  f=0.0000  <S**2>=2.000
      66 -> 68         0.68488
      67 -> 68         0.10239

 Excited State   3:      Singlet-A      2.5081 eV  494.33 nm  f=0.2169  <S**2>=0.000
      66 -> 68         0.48459
      67 -> 68         0.51674

 Excited State   4:      Triplet-A      2.9620 eV  418.59 nm  f=0.0000  <S**2>=2.000
      64 -> 68        -0.34386
      65 -> 68         0.59519
      67 -> 69         0.11859

 Excited State   5:      Singlet-A      3.0200 eV  410.54 nm  f=0.0030  <S**2>=0.000
      65 -> 68         0.70632

 Excited State   6:      Singlet-A      3.0461 eV  407.03 nm  f=0.7418  <S**2>=0.000
      66 -> 68         0.50709
      67 -> 68        -0.49975
      67 <- 68         0.13363

 The electronic state is 1-A.
 Alpha  occ. eigenvalues --  -19.24723 -14.38842 -14.38444 -14.38175 -14.38116
 Alpha  occ. eigenvalues --  -10.33067 -10.32050 -10.30884 -10.29951 -10.29485
 Alpha  occ. eigenvalues --  -10.29386 -10.27969 -10.27659 -10.27598 -10.27405
 Alpha  occ. eigenvalues --  -10.26581 -10.26404 -10.25271 -10.23593 -10.22768
 Alpha  occ. eigenvalues --   -1.13424  -0.96364  -0.95941  -0.94340  -0.94296
 Alpha  occ. eigenvalues --   -0.93167  -0.89154  -0.84472  -0.83968  -0.81495
 Alpha  occ. eigenvalues --   -0.77321  -0.74268  -0.69093  -0.67586  -0.63938
 Alpha  occ. eigenvalues --   -0.61861  -0.60211  -0.59819  -0.58031  -0.54451
 Alpha  occ. eigenvalues --   -0.53456  -0.51234  -0.50355  -0.48626  -0.47755
 Alpha  occ. eigenvalues --   -0.47156  -0.45861  -0.45192  -0.43153  -0.42566
 Alpha  occ. eigenvalues --   -0.40982  -0.40765  -0.40403  -0.40282  -0.40120
 Alpha  occ. eigenvalues --   -0.39905  -0.38348  -0.38283  -0.37961  -0.37914
 Alpha  occ. eigenvalues --   -0.37705  -0.36879  -0.35815  -0.34607  -0.30894
 Alpha  occ. eigenvalues --   -0.30337  -0.26735
 Alpha virt. eigenvalues --   -0.17746  -0.07077  -0.05695  -0.04672  -0.04073
 Alpha virt. eigenvalues --   -0.03634  -0.01875  -0.00690  -0.00076   0.00189
 Alpha virt. eigenvalues --    0.00486   0.00692   0.00965   0.01150   0.02139

 Mulliken charges:
               1
     1  C   -0.334125
     2  C    0.257153
     3  C   -0.170162
     4  O   -0.269246
     5  C   -0.587632
     6  C   -0.276362
     7  C    1.142725
     8  C    0.860542
     9  C   -0.266798
    10  N   -0.474819
    11  C   -0.426366
    12  N   -0.456814
    13  C   -0.628924
    14  C   -0.699656
    15  C    0.816477
    16  C    1.610084
    17  C   -0.199129
    18  N   -0.470442
    19  C   -0.239416
    20  N   -0.451478
    21  H    0.151319
    22  H    0.145164
    23  H    0.147954
    24  H    0.177950
    25  H    0.145459
    26  H    0.151892
    27  H    0.171761
    28  H    0.172887
 Sum of Mulliken charges =  -0.00000

 Dipole moment (field-independent basis, Debye):
    X=              0.0247    Y=              3.0283    Z=             -0.0699  Tot=              3.0292
 Quadrupole moment (field-independent basis, Debye-Ang):
   XX=           -168.9322   YY=           -122.2262   ZZ=           -112.8208
   XY=              0.6126   XZ=              0.6694   YZ=              2.6863

 Normal termination of Gaussian 16 at Sat Aug  9 21:22:48 2025.
