 Gaussian 16, Revision C.02,
 Gaussian 16:  ES64L-G16RevC.02  7-Dec-2021

 ----------------------------------------------------------
 # td=(50-50,nstates=3) b3lyp/6-31+g(d,p) geom=connectivity
 ----------------------------------------------------------

 -------------------
 Title Card Required
 -------------------
 Symbolic Z-matrix:
 Charge =  0 Multiplicity = 1

                         Standard orientation:
 ---------------------------------------------------------------------
 Center     Atomic      Atomic             Coordinates (Angstroms)
 Number     Number       Type             X           Y           Z
 ---------------------------------------------------------------------
      1          6           0       -3.505761    2.167895    2.139746
      2          6           0       -3.188874    1.186010    1.042765
      3          6           0       -4.210660    0.684777    0.270965
      4          6           0       -4.242095   -0.259521   -0.788563
      5          6           0       -3.189317   -0.891200   -1.400410
      6          8           0       -3.520273   -1.753581   -2.409123
      7          6           0       -1.799867   -0.703193   -1.120514
      8          6           0       -1.188508    0.029773   -0.142149
      9          6           0        0.306202    0.026309   -0.119322
     10          6           0        1.076242   -1.068843    0.174217
     11          7           0        0.388942   -2.350592    0.470226
     12          8           0        0.207661   -3.105823   -0.484222
     13          8           0        0.050995   -2.555623    1.626703
     14          6           0        2.519589   -1.067066    0.241053
     15         17           0        3.351070   -2.538926    0.656387
     16          6           0        3.231816    0.075412   -0.004717
     17          6           0        2.468850    1.217961   -0.338624
     18          6           0        1.047923    1.224782   -0.408369
     19          7           0        0.583366    2.403729   -0.785358
     20          8           0        1.679659    3.201688   -0.955604
     21          7           0        2.884422    2.449632   -0.673012
     22          8           0        3.976409    2.993943   -0.778321
     23          6           0       -1.761914    0.842383    0.959501
     24          8           0       -0.976929    1.270260    1.820430
     25          1           0       -3.234794    1.751280    3.116217
     26          1           0       -2.903131    3.075826    2.027212
     27          1           0       -4.565265    2.434208    2.143209
     28          1           0       -5.197985    1.061377    0.531098
     29          1           0       -5.223078   -0.516144   -1.178108
     30          1           0       -2.745460   -2.241113   -2.719492
     31          1           0       -1.130663   -1.230723   -1.798757
     32          1           0        4.313159    0.107871    0.044675
 ---------------------------------------------------------------------

 SCF Done:  E(RB3LYP) =  -1613.85271354     A.U. after   22 cycles

 Excitation energies and oscillator strengths:

 Excited State   1:      Triplet-A      1.2361 eV 1003.03 nm  f=0.0000  <S**2>=2.000
      88 -> 90         0.68921
      88 -> 92         0.14945
      89 -> 90         0.13114
      88 <- 90         0.22014
 This state for optimization and/or second-order correction.
 Total Energy, E(TD-HF/TD-DFT) =  -1613.80728801
 Copying the excited state density for this state as the 1-particle RhoCI density.

 Excited State   2:      Triplet-A      1.8629 eV  665.53 nm  f=0.0000  <S**2>=2.000
      89 -> 90        -0.35339
      89 -> 91        -0.10172
      89 -> 92         0.58282
      89 -> 93         0.11792
      89 <- 92         0.10997

 Excited State   3:      Singlet-A      2.5209 eV  491.83 nm  f=0.0250  <S**2>=0.000
      89 -> 90         0.70183

 Excited State   4:      Triplet-A      2.5604 eV  484.23 nm  f=0.0000  <S**2>=2.000
      89 -> 90         0.57974
      89 -> 92         0.35198

 Excited State   5:      Singlet-A      2.7910 eV  444.23 nm  f=0.0015  <S**2>=0.000
      89 -> 91         0.69957

 Excited State   6:      Singlet-A      3.0339 eV  408.67 nm  f=0.0310  <S**2>=0.000
      87 -> 90        -0.10261
      88 -> 90         0.38618
      88 -> 91         0.56374

 The electronic state is 1-A.
 Alpha  occ. eigenvalues -- -101.59721 -19.30754 -19.23539 -19.23326 -19.22662
 Alpha  occ. eigenvalues --  -19.21713 -19.14186 -14.61660 -14.57436 -14.43769
 Alpha  occ. eigenvalues --  -10.31790 -10.30968 -10.30437 -10.29579 -10.29219
 Alpha  occ. eigenvalues --  -10.28868 -10.28227 -10.26740 -10.26333 -10.25832
 Alpha  occ. eigenvalues --  -10.23890 -10.23732 -10.23399 -10.19607  -9.51170
 Alpha  occ. eigenvalues --   -7.27628  -7.26585  -7.26553  -1.27336  -1.24677
 Alpha  occ. eigenvalues --   -1.14867  -1.10638  -1.10213  -1.04382  -0.96708
 Alpha  occ. eigenvalues --   -0.92403  -0.91625  -0.88763  -0.86919  -0.83620
 Alpha  occ. eigenvalues --   -0.81723  -0.80156  -0.77351  -0.72906  -0.69907
 Alpha  occ. eigenvalues --   -0.68877  -0.67558  -0.67161  -0.63741  -0.60791
 Alpha  occ. eigenvalues --   -0.60119  -0.59583  -0.57613  -0.56450  -0.55998
 Alpha  occ. eigenvalues --   -0.55406  -0.54908  -0.54557  -0.52838  -0.51004
 Alpha  occ. eigenvalues --   -0.49089  -0.48370  -0.47128  -0.46503  -0.45707
 Alpha  occ. eigenvalues --   -0.45555  -0.44584  -0.44521  -0.44395  -0.43721
 Alpha  occ. eigenvalues --   -0.41578  -0.40419  -0.39805  -0.39410  -0.39035
 Alpha  occ. eigenvalues --   -0.38737  -0.38224  -0.35932  -0.35876  -0.35481
 Alpha  occ. eigenvalues --   -0.34712  -0.34118  -0.32852  -0.32301  -0.31654
 Alpha  occ. eigenvalues --   -0.31069  -0.27026  -0.25416  -0.24284
 Alpha virt. eigenvalues --   -0.12974  -0.11688  -0.10295  -0.07838  -0.04503
 Alpha virt. eigenvalues --   -0.03993  -0.02672  -0.02128  -0.00277  -0.00263
 Alpha virt. eigenvalues --    0.01032   0.01683   0.02015   0.02818   0.03143

 Mulliken charges:
               1
     1  C   -0.565255
     2  C    0.908151
     3  C   -0.877343
     4  C    0.177282
     5  C    0.282523
     6  O   -0.476959
     7  C   -0.544933
     8  C    0.962778
     9  C    0.711700
    10  C   -0.265397
    11  N   -0.383210
    12  O    0.030586
    13  O    0.066341
    14  C   -0.298335
    15  Cl   0.331249
    16  C    0.784576
    17  C   -0.503350
    18  C   -0.066781
    19  N   -0.485771
    20  O    0.425617
    21  N   -0.592030
    22  O    0.056944
    23  C   -0.747105
    24  O   -0.394958
    25  H    0.185296
    26  H    0.182915
    27  H    0.137774
    28  H    0.135539
    29  H    0.149975
    30  H    0.365084
    31  H    0.124397
    32  H    0.182702
 Sum of Mulliken charges =  -0.00000

 Dipole moment (field-independent basis, Debye):
    X=             -2.2665    Y=             -1.6084    Z=             -2.2732  Tot=              3.5904
 Quadrupole moment (field-independent basis, Debye-Ang):
   XX=           -129.6208   YY=           -161.1667   ZZ=           -146.3607
   XY=            -11.8079   XZ=              0.7114   YZ=              7.4438

 Normal termination of Gaussian 16 at Sun Sep 21 21:07:12 2025.
