 Gaussian 16, Revision C.02,
 Gaussian 16:  ES64L-G16RevC.02  7-Dec-2021

 ----------------------------------------------------------
 # td=(50-50,nstates=3) b3lyp/6-31+g(d,p) geom=connectivity
 ----------------------------------------------------------

 -------------------
 Title Card Required
 -------------------
 Symbolic Z-matrix:
 Charge =  0 Multiplicity = 1

                         Standard orientation:
 ---------------------------------------------------------------------
 Center     Atomic      Atomic             Coordinates (Angstroms)
 Number     Number       Type             X           Y           Z
 ---------------------------------------------------------------------
      1          6           0        0.735690    5.225879    0.986574
      2          8           0        0.898385    4.278657   -0.060272
      3          6           0        1.100509    2.960838    0.403018
      4          6           0        1.276444    2.098021   -0.844837
      5          8           0        1.518592    0.720467   -0.495528
      6          6           0        0.518685   -0.143938   -0.276490
      7          6           0       -0.814969    0.164427   -0.287694
      8          6           0       -1.813693   -0.839420   -0.057459
      9          6           0       -3.171901   -0.525128   -0.065414
     10          6           0       -4.177503   -1.510863    0.161780
     11          7           0       -4.995245   -2.319866    0.348243
     12          6           0       -3.626003    0.806844   -0.298400
     13          7           0       -3.973924    1.902910   -0.487404
     14          6           0       -1.377883   -2.198213    0.192377
     15          6           0       -0.060359   -2.510414    0.212737
     16          6           0        0.968448   -1.516326   -0.016629
     17          6           0        2.306398   -1.883541    0.012945
     18          6           0        3.431531   -1.025228   -0.192219
     19          7           0        4.421819   -0.429763   -0.338581
     20          6           0        2.671849   -3.244321    0.272913
     21          7           0        2.971745   -4.349469    0.484297
     22          1           0        0.588889    6.197890    0.512872
     23          1           0       -0.142239    4.988256    1.604539
     24          1           0        1.627421    5.265650    1.628624
     25          1           0        2.003031    2.889995    1.029753
     26          1           0        0.242724    2.619890    1.004782
     27          1           0        0.413885    2.179703   -1.512744
     28          1           0        2.170619    2.404618   -1.389073
     29          1           0       -1.140642    1.180670   -0.468226
     30          1           0       -2.123263   -2.966310    0.366764
     31          1           0        0.249530   -3.531755    0.404010
 ---------------------------------------------------------------------

 SCF Done:  E(RB3LYP) =  -946.977510066     A.U. after   18 cycles

 Excitation energies and oscillator strengths:

 Excited State   1:      Triplet-A      0.6883 eV 1801.21 nm  f=0.0000  <S**2>=2.000
      70 -> 73        -0.11340
      72 -> 73         0.76347
      72 <- 73         0.32684
 This state for optimization and/or second-order correction.
 Total Energy, E(TD-HF/TD-DFT) =  -946.952214117
 Copying the excited state density for this state as the 1-particle RhoCI density.

 Excited State   2:      Triplet-A      2.0677 eV  599.62 nm  f=0.0000  <S**2>=2.000
      70 -> 73         0.64522
      71 -> 73         0.23387
      72 -> 73         0.11001

 Excited State   3:      Singlet-A      2.4721 eV  501.54 nm  f=0.1641  <S**2>=0.000
      70 -> 73         0.36743
      71 -> 73         0.37344
      72 -> 73         0.47632

 Excited State   4:      Triplet-A      2.6549 eV  467.01 nm  f=0.0000  <S**2>=2.000
      70 -> 73        -0.23737
      71 -> 73         0.66323

 Excited State   5:      Singlet-A      2.6904 eV  460.83 nm  f=0.0655  <S**2>=0.000
      70 -> 73        -0.33597
      71 -> 73         0.58805
      72 -> 73        -0.20377

 Excited State   6:      Singlet-A      3.0421 eV  407.56 nm  f=0.7454  <S**2>=0.000
      70 -> 73         0.49366
      71 -> 73         0.11976
      72 -> 73        -0.49868
      72 <- 73         0.13349

 The electronic state is 1-A.
 Alpha  occ. eigenvalues --  -19.25023 -19.19055 -14.38971 -14.38501 -14.38289
 Alpha  occ. eigenvalues --  -14.38233 -10.33405 -10.32207 -10.31036 -10.30116
 Alpha  occ. eigenvalues --  -10.29561 -10.28844 -10.28090 -10.27701 -10.27671
 Alpha  occ. eigenvalues --  -10.27511 -10.27361 -10.26721 -10.26551 -10.25602
 Alpha  occ. eigenvalues --  -10.25454  -1.13835  -1.06994  -0.96495  -0.96036
 Alpha  occ. eigenvalues --   -0.94456  -0.94370  -0.93332  -0.89291  -0.84385
 Alpha  occ. eigenvalues --   -0.83295  -0.80238  -0.76834  -0.72637  -0.69203
 Alpha  occ. eigenvalues --   -0.67899  -0.65558  -0.64052  -0.60582  -0.60195
 Alpha  occ. eigenvalues --   -0.58219  -0.54788  -0.54191  -0.52144  -0.51572
 Alpha  occ. eigenvalues --   -0.50219  -0.49973  -0.47845  -0.47531  -0.46305
 Alpha  occ. eigenvalues --   -0.45403  -0.44538  -0.43473  -0.41933  -0.41061
 Alpha  occ. eigenvalues --   -0.40980  -0.40778  -0.40270  -0.40194  -0.39548
 Alpha  occ. eigenvalues --   -0.38558  -0.38337  -0.38035  -0.37986  -0.37855
 Alpha  occ. eigenvalues --   -0.36947  -0.35929  -0.35589  -0.34749  -0.30506
 Alpha  occ. eigenvalues --   -0.29327  -0.26863
 Alpha virt. eigenvalues --   -0.17894  -0.07242  -0.05922  -0.04225  -0.03751
 Alpha virt. eigenvalues --   -0.02037  -0.01038  -0.00267  -0.00052   0.00180
 Alpha virt. eigenvalues --    0.00535   0.00604   0.01191   0.01431   0.02128

 Mulliken charges:
               1
     1  C   -0.130925
     2  O   -0.297406
     3  C   -0.030617
     4  C   -0.126670
     5  O   -0.263730
     6  C   -0.603848
     7  C   -0.068480
     8  C    1.182545
     9  C    0.924643
    10  C   -0.250674
    11  N   -0.472976
    12  C   -0.415517
    13  N   -0.452719
    14  C   -0.674075
    15  C   -0.698070
    16  C    0.701049
    17  C    1.516805
    18  C   -0.211618
    19  N   -0.463069
    20  C   -0.250410
    21  N   -0.450638
    22  H    0.155569
    23  H    0.134731
    24  H    0.133228
    25  H    0.143871
    26  H    0.128895
    27  H    0.155679
    28  H    0.183561
    29  H    0.155204
    30  H    0.172260
    31  H    0.173401
 Sum of Mulliken charges =  -0.00000

 Dipole moment (field-independent basis, Debye):
    X=              0.7971    Y=              2.6564    Z=              0.8953  Tot=              2.9144
 Quadrupole moment (field-independent basis, Debye-Ang):
   XX=           -173.2640   YY=           -131.1337   ZZ=           -119.7715
   XY=             10.2292   XZ=              0.8026   YZ=              9.1122

 Normal termination of Gaussian 16 at Sat Aug  9 21:22:30 2025.
