 Gaussian 16, Revision C.02,
 Gaussian 16:  ES64L-G16RevC.02  7-Dec-2021

 ----------------------------------------------------------
 # td=(50-50,nstates=3) b3lyp/6-31+g(d,p) geom=connectivity
 ----------------------------------------------------------

 -------------------
 Title Card Required
 -------------------
 Symbolic Z-matrix:
 Charge =  0 Multiplicity = 1

                         Standard orientation:
 ---------------------------------------------------------------------
 Center     Atomic      Atomic             Coordinates (Angstroms)
 Number     Number       Type             X           Y           Z
 ---------------------------------------------------------------------
      1          6           0        0.100625   -3.314068   -0.285147
      2          8           0        1.184792   -2.396513   -0.149433
      3          6           0        0.940978   -1.072516   -0.133543
      4          6           0       -0.296849   -0.508738   -0.225198
      5          6           0       -0.503017    0.921780   -0.198723
      6          6           0       -1.772502    1.449083   -0.317360
      7          6           0       -2.086470    2.838269   -0.262192
      8          7           0       -2.499765    3.929574   -0.245978
      9          6           0       -2.994102    0.563409   -0.497614
     10          8           0       -3.329159   -0.003243    0.771789
     11          6           0       -4.535077   -0.763934    0.780894
     12          6           0       -4.294332   -2.252756    0.598048
     13          8           0       -3.731717   -2.480484   -0.700326
     14          6           0        0.704995    1.746017   -0.044830
     15          8           0        0.479255    3.066169   -0.010537
     16          6           0        1.571548    3.979195    0.134864
     17          6           0        1.944288    1.176612    0.044656
     18          6           0        2.141470   -0.244135    0.000786
     19          6           0        3.426413   -0.777222    0.084247
     20          6           0        3.782523   -2.160091    0.053913
     21          7           0        4.189364   -3.252144    0.038717
     22          6           0        4.545419    0.104427    0.212463
     23          7           0        5.444093    0.839413    0.316583
     24          1           0       -0.593358   -3.221399    0.557689
     25          1           0       -0.435431   -3.146443   -1.225973
     26          1           0        0.559383   -4.302444   -0.285242
     27          1           0       -1.167307   -1.144793   -0.294768
     28          1           0       -3.829008    1.172117   -0.865946
     29          1           0       -2.798304   -0.224030   -1.234264
     30          1           0       -4.997092   -0.605025    1.762115
     31          1           0       -5.228191   -0.397604    0.010899
     32          1           0       -5.255860   -2.775308    0.707601
     33          1           0       -3.610693   -2.611470    1.380257
     34          1           0       -3.764290   -3.423892   -0.901380
     35          1           0        1.117212    4.969120    0.137446
     36          1           0        2.098091    3.805023    1.079212
     37          1           0        2.267487    3.887282   -0.705801
     38          1           0        2.820691    1.801548    0.149365
 ---------------------------------------------------------------------

 SCF Done:  E(RB3LYP) =  -1083.80583235     A.U. after   17 cycles

 Excitation energies and oscillator strengths:

 Excited State   1:      Triplet-A      0.9479 eV 1308.00 nm  f=0.0000  <S**2>=2.000
      82 -> 83         0.74140
      82 <- 83         0.25363
 This state for optimization and/or second-order correction.
 Total Energy, E(TD-HF/TD-DFT) =  -1083.77099796
 Copying the excited state density for this state as the 1-particle RhoCI density.

 Excited State   2:      Triplet-A      1.9360 eV  640.41 nm  f=0.0000  <S**2>=2.000
      81 -> 83         0.69641

 Excited State   3:      Singlet-A      2.6063 eV  475.70 nm  f=0.0021  <S**2>=0.000
      81 -> 83         0.70069

 Excited State   4:      Singlet-A      2.9958 eV  413.86 nm  f=0.9323  <S**2>=0.000
      82 -> 83         0.71222
      82 <- 83        -0.14987

 Excited State   5:      Triplet-A      3.1304 eV  396.06 nm  f=0.0000  <S**2>=2.000
      78 -> 83        -0.26117
      80 -> 83         0.62962
      82 -> 84        -0.14067

 Excited State   6:      Singlet-A      3.2678 eV  379.41 nm  f=0.0040  <S**2>=0.000
      80 -> 83         0.70324

 The electronic state is 1-A.
 Alpha  occ. eigenvalues --  -19.22933 -19.22587 -19.19382 -19.18531 -14.36027
 Alpha  occ. eigenvalues --  -14.35167 -14.35032 -10.30621 -10.30181 -10.28195
 Alpha  occ. eigenvalues --  -10.27447 -10.27076 -10.27064 -10.26959 -10.26755
 Alpha  occ. eigenvalues --  -10.26614 -10.26369 -10.26307 -10.25396 -10.24792
 Alpha  occ. eigenvalues --  -10.24571 -10.22971 -10.22951  -1.11754  -1.11407
 Alpha  occ. eigenvalues --   -1.06894  -1.05190  -0.93484  -0.92125  -0.91504
 Alpha  occ. eigenvalues --   -0.90413  -0.86477  -0.81929  -0.80296  -0.78237
 Alpha  occ. eigenvalues --   -0.76055  -0.75565  -0.71324  -0.69312  -0.65553
 Alpha  occ. eigenvalues --   -0.64000  -0.63238  -0.59707  -0.58935  -0.56734
 Alpha  occ. eigenvalues --   -0.56141  -0.53844  -0.53224  -0.52777  -0.50881
 Alpha  occ. eigenvalues --   -0.50313  -0.50207  -0.49288  -0.48894  -0.47581
 Alpha  occ. eigenvalues --   -0.46557  -0.45952  -0.44195  -0.44147  -0.43148
 Alpha  occ. eigenvalues --   -0.42521  -0.41429  -0.40481  -0.39069  -0.38911
 Alpha  occ. eigenvalues --   -0.38398  -0.38295  -0.38114  -0.37613  -0.37474
 Alpha  occ. eigenvalues --   -0.37358  -0.35491  -0.35357  -0.35093  -0.33821
 Alpha  occ. eigenvalues --   -0.33477  -0.32959  -0.32345  -0.31621  -0.28633
 Alpha  occ. eigenvalues --   -0.26066  -0.24006
 Alpha virt. eigenvalues --   -0.14126  -0.04192  -0.03141  -0.01935  -0.01374
 Alpha virt. eigenvalues --   -0.00623   0.00007   0.00417   0.00503   0.01345
 Alpha virt. eigenvalues --    0.01803   0.01996   0.02848   0.03185   0.03289

 Mulliken charges:
               1
     1  C   -0.134121
     2  O   -0.338595
     3  C    0.186202
     4  C   -0.567307
     5  C    0.351689
     6  C    0.312408
     7  C    0.190628
     8  N   -0.530518
     9  C   -0.367034
    10  O   -0.296136
    11  C   -0.043801
    12  C   -0.065371
    13  O   -0.590880
    14  C   -0.043124
    15  O   -0.333929
    16  C   -0.121317
    17  C   -0.826126
    18  C    1.002945
    19  C    1.026151
    20  C    0.081582
    21  N   -0.535380
    22  C   -0.367019
    23  N   -0.480731
    24  H    0.151333
    25  H    0.153836
    26  H    0.167745
    27  H    0.153849
    28  H    0.142433
    29  H    0.161379
    30  H    0.145507
    31  H    0.132510
    32  H    0.129543
    33  H    0.136594
    34  H    0.374937
    35  H    0.171134
    36  H    0.159378
    37  H    0.158925
    38  H    0.150683
 Sum of Mulliken charges =  -0.00000

 Dipole moment (field-independent basis, Debye):
    X=             -7.4812    Y=             -2.9294    Z=             -0.4496  Tot=              8.0468
 Quadrupole moment (field-independent basis, Debye-Ang):
   XX=           -162.0564   YY=           -136.9883   ZZ=           -135.1175
   XY=             39.7740   XZ=             -3.0230   YZ=              0.7447

 Normal termination of Gaussian 16 at Sat Aug  9 21:28:51 2025.
