 Gaussian 16, Revision C.02,
 Gaussian 16:  ES64L-G16RevC.02  7-Dec-2021

 ----------------------------------------------------------
 # td=(50-50,nstates=3) b3lyp/6-31+g(d,p) geom=connectivity
 ----------------------------------------------------------

 -------------------
 Title Card Required
 -------------------
 Symbolic Z-matrix:
 Charge =  0 Multiplicity = 1

                         Standard orientation:
 ---------------------------------------------------------------------
 Center     Atomic      Atomic             Coordinates (Angstroms)
 Number     Number       Type             X           Y           Z
 ---------------------------------------------------------------------
      1          6           0       -6.088368   -0.033811   -0.135521
      2          8           0       -4.815402    0.594038   -0.151077
      3          6           0       -3.747938   -0.310545    0.046119
      4          6           0       -2.470968    0.514952   -0.003307
      5          8           0       -1.390895   -0.424332    0.228800
      6          6           0       -0.107393   -0.069258    0.102830
      7          6           0        0.843475   -1.066953    0.035682
      8          7           0        0.347748   -2.461649    0.063456
      9          8           0       -0.013711   -2.941869   -1.005096
     10          8           0        0.333765   -3.022442    1.153224
     11          6           0        2.256684   -0.832626   -0.051806
     12         17           0        3.329337   -2.199945   -0.136254
     13          6           0        2.766780    0.439102   -0.084285
     14          6           0        1.810755    1.478036   -0.019472
     15          6           0        0.401784    1.279436    0.075872
     16          7           0       -0.253066    2.431662    0.134968
     17          8           0        0.696890    3.406945    0.076493
     18          7           0        2.012966    2.806548   -0.020727
     19          8           0        3.000890    3.526641   -0.082401
     20          1           0       -6.830792    0.750043   -0.295918
     21          1           0       -6.173422   -0.782938   -0.936379
     22          1           0       -6.280196   -0.522154    0.831220
     23          1           0       -3.829210   -0.816759    1.020854
     24          1           0       -3.729115   -1.082876   -0.738390
     25          1           0       -2.347569    0.987226   -0.981483
     26          1           0       -2.469925    1.284170    0.771800
     27          1           0        3.826794    0.644561   -0.155490
 ---------------------------------------------------------------------

 SCF Done:  E(RB3LYP) =  -1423.31100072     A.U. after   18 cycles

 Excitation energies and oscillator strengths:

 Excited State   1:      Triplet-A      1.1612 eV 1067.72 nm  f=0.0000  <S**2>=2.000
      71 -> 75         0.11521
      74 -> 75         0.72057
      74 <- 75         0.24041
 This state for optimization and/or second-order correction.
 Total Energy, E(TD-HF/TD-DFT) =  -1423.26832731
 Copying the excited state density for this state as the 1-particle RhoCI density.

 Excited State   2:      Triplet-A      2.8289 eV  438.28 nm  f=0.0000  <S**2>=2.000
      67 -> 76         0.68825
      68 -> 76        -0.12031
      74 -> 76         0.10692
      67 <- 76         0.18320

 Excited State   3:      Triplet-A      2.8703 eV  431.96 nm  f=0.0000  <S**2>=2.000
      67 -> 76        -0.14796
      68 -> 76        -0.17207
      72 -> 75         0.17219
      72 -> 76         0.29473
      74 -> 76         0.55488

 Excited State   4:      Singlet-A      3.0193 eV  410.64 nm  f=0.0226  <S**2>=0.000
      72 -> 76         0.15807
      74 -> 75         0.37771
      74 -> 76         0.57048

 Excited State   5:      Singlet-A      3.1128 eV  398.31 nm  f=0.0945  <S**2>=0.000
      72 -> 76        -0.10188
      74 -> 75         0.58725
      74 -> 76        -0.36556

 Excited State   6:      Singlet-A      3.8050 eV  325.84 nm  f=0.0019  <S**2>=0.000
      73 -> 75         0.70096

 The electronic state is 1-A.
 Alpha  occ. eigenvalues -- -101.59530 -19.31474 -19.24294 -19.22485 -19.22471
 Alpha  occ. eigenvalues --  -19.22112 -19.18205 -14.60929 -14.57827 -14.44841
 Alpha  occ. eigenvalues --  -10.33507 -10.31776 -10.30174 -10.29979 -10.29803
 Alpha  occ. eigenvalues --  -10.27795 -10.26205 -10.25983 -10.24829  -9.50981
 Alpha  occ. eigenvalues --   -7.27439  -7.26398  -7.26359  -1.26444  -1.25298
 Alpha  occ. eigenvalues --   -1.15582  -1.12965  -1.09308  -1.06151  -0.96470
 Alpha  occ. eigenvalues --   -0.92596  -0.91712  -0.87578  -0.82032  -0.80355
 Alpha  occ. eigenvalues --   -0.76944  -0.71872  -0.69050  -0.67666  -0.65263
 Alpha  occ. eigenvalues --   -0.64041  -0.60648  -0.59112  -0.57721  -0.57181
 Alpha  occ. eigenvalues --   -0.55771  -0.54610  -0.54349  -0.53382  -0.52996
 Alpha  occ. eigenvalues --   -0.49895  -0.49640  -0.48823  -0.48386  -0.47462
 Alpha  occ. eigenvalues --   -0.45725  -0.45256  -0.45004  -0.42324  -0.41634
 Alpha  occ. eigenvalues --   -0.40645  -0.39066  -0.38222  -0.37174  -0.35646
 Alpha  occ. eigenvalues --   -0.34831  -0.34490  -0.34304  -0.33988  -0.32787
 Alpha  occ. eigenvalues --   -0.32114  -0.29857  -0.28478  -0.24914
 Alpha virt. eigenvalues --   -0.12781  -0.10739  -0.04719  -0.03731  -0.02804
 Alpha virt. eigenvalues --   -0.01138   0.00171   0.00626   0.01028   0.01319
 Alpha virt. eigenvalues --    0.02308   0.02351   0.02992   0.04003   0.04347

 Mulliken charges:
               1
     1  C   -0.147438
     2  O   -0.343931
     3  C   -0.084162
     4  C    0.011663
     5  O   -0.373182
     6  C   -0.082200
     7  C   -0.295592
     8  N   -0.454300
     9  O    0.056243
    10  O    0.042774
    11  C    0.090537
    12  Cl   0.317788
    13  C    0.495473
    14  C   -0.602164
    15  C    0.796359
    16  N   -0.511325
    17  O    0.371064
    18  N   -0.546555
    19  O    0.040812
    20  H    0.150918
    21  H    0.132077
    22  H    0.131617
    23  H    0.137464
    24  H    0.140572
    25  H    0.165225
    26  H    0.181196
    27  H    0.179066
 Sum of Mulliken charges =  -0.00000

 Dipole moment (field-independent basis, Debye):
    X=             -1.9635    Y=             -0.0121    Z=             -0.1510  Tot=              1.9693
 Quadrupole moment (field-independent basis, Debye-Ang):
   XX=            -99.6477   YY=           -141.7038   ZZ=           -117.3209
   XY=             -1.5878   XZ=             -0.6826   YZ=              0.8252

 Normal termination of Gaussian 16 at Sun Sep 21 21:20:37 2025.
