 Gaussian 16, Revision C.02,
 Gaussian 16:  ES64L-G16RevC.02  7-Dec-2021

 ----------------------------------------------------------
 # td=(50-50,nstates=3) b3lyp/6-31+g(d,p) geom=connectivity
 ----------------------------------------------------------

 -------------------
 Title Card Required
 -------------------
 Symbolic Z-matrix:
 Charge =  0 Multiplicity = 1

                         Standard orientation:
 ---------------------------------------------------------------------
 Center     Atomic      Atomic             Coordinates (Angstroms)
 Number     Number       Type             X           Y           Z
 ---------------------------------------------------------------------
      1          6           0        4.187402   -3.046948   -0.387894
      2          7           0        3.767189   -1.665931   -0.183475
      3          6           0        2.352708   -1.347074   -0.363546
      4          6           0        1.679098   -0.805928    0.921210
      5          6           0        0.218695   -0.482116    0.700074
      6          6           0       -0.189447    0.809107    0.325787
      7          6           0       -1.527966    1.099870    0.079620
      8          6           0       -2.508713    0.100557    0.204733
      9          6           0       -3.923924    0.433820   -0.060077
     10          7           0       -4.342871    1.623861   -0.257267
     11          6           0       -5.757416    1.683862   -0.607648
     12          6           0       -6.473108    0.393090   -0.149494
     13         16           0       -5.159246   -0.890838   -0.157799
     14          6           0       -2.109222   -1.189311    0.584867
     15          6           0       -0.765027   -1.472765    0.826584
     16          7           0        4.738798   -0.763863   -0.431830
     17          6           0        4.498309    0.490738   -0.575865
     18          6           0        5.667646    1.415186   -0.832209
     19          6           0        5.773179    2.478026    0.178825
     20          7           0        5.831269    3.319393    0.977684
     21          1           0        5.235369   -3.133607   -0.099317
     22          1           0        3.589750   -3.710337    0.244040
     23          1           0        4.080353   -3.365707   -1.436760
     24          1           0        2.236116   -0.626694   -1.186864
     25          1           0        1.840302   -2.262015   -0.676993
     26          1           0        1.785191   -1.563130    1.705947
     27          1           0        2.214001    0.083482    1.269251
     28          1           0        0.551146    1.600170    0.235355
     29          1           0       -1.835684    2.099661   -0.206175
     30          1           0       -6.215085    2.569423   -0.155440
     31          1           0       -5.827300    1.801813   -1.698882
     32          1           0       -6.870075    0.484640    0.865516
     33          1           0       -7.279128    0.098207   -0.823879
     34          1           0       -2.849710   -1.973347    0.709753
     35          1           0       -0.480335   -2.477227    1.130724
     36          1           0        3.509133    0.945372   -0.507372
     37          1           0        6.591178    0.827755   -0.835506
     38          1           0        5.578727    1.900040   -1.814199
 ---------------------------------------------------------------------

 SCF Done:  E(RB3LYP) =  -1199.62337895     A.U. after   16 cycles

 Excitation energies and oscillator strengths:

 Excited State   1:      Triplet-A      2.9937 eV  414.15 nm  f=0.0000  <S**2>=2.000
      73 -> 78        -0.14717
      74 -> 77        -0.34634
      75 -> 77         0.53913
      76 -> 77        -0.19454
 This state for optimization and/or second-order correction.
 Total Energy, E(TD-HF/TD-DFT) =  -1199.51336126
 Copying the excited state density for this state as the 1-particle RhoCI density.

 Excited State   2:      Triplet-A      3.3087 eV  374.72 nm  f=0.0000  <S**2>=2.000
      76 -> 79         0.63035
      76 -> 81        -0.19089

 Excited State   3:      Triplet-A      3.6566 eV  339.07 nm  f=0.0000  <S**2>=2.000
      73 -> 78         0.24331
      74 -> 77         0.46990
      75 -> 77         0.38455
      76 -> 77         0.11893

 Excited State   4:      Singlet-A      4.0807 eV  303.83 nm  f=0.0526  <S**2>=0.000
      76 -> 77         0.70435

 Excited State   5:      Singlet-A      4.2063 eV  294.76 nm  f=0.0191  <S**2>=0.000
      74 -> 77         0.16294
      75 -> 77         0.68033

 Excited State   6:      Singlet-A      4.6811 eV  264.86 nm  f=0.0036  <S**2>=0.000
      72 -> 77         0.65960
      73 -> 77        -0.20889

 The electronic state is 1-A.
 Alpha  occ. eigenvalues --  -88.89496 -14.39736 -14.38799 -14.34214 -14.33982
 Alpha  occ. eigenvalues --  -10.26894 -10.24573 -10.24247 -10.23772 -10.23624
 Alpha  occ. eigenvalues --  -10.23316 -10.23256 -10.22895 -10.22001 -10.21957
 Alpha  occ. eigenvalues --  -10.21222 -10.21017 -10.20867 -10.20761 -10.20704
 Alpha  occ. eigenvalues --   -7.95544  -5.92024  -5.91681  -5.91073  -1.03029
 Alpha  occ. eigenvalues --   -0.95516  -0.91065  -0.87956  -0.87043  -0.81530
 Alpha  occ. eigenvalues --   -0.79143  -0.78479  -0.76746  -0.76198  -0.73160
 Alpha  occ. eigenvalues --   -0.68984  -0.66931  -0.63607  -0.61326  -0.60816
 Alpha  occ. eigenvalues --   -0.57599  -0.56108  -0.54896  -0.52220  -0.50642
 Alpha  occ. eigenvalues --   -0.49878  -0.49437  -0.48242  -0.47585  -0.46608
 Alpha  occ. eigenvalues --   -0.46350  -0.45895  -0.43879  -0.43444  -0.43348
 Alpha  occ. eigenvalues --   -0.42384  -0.41457  -0.41281  -0.40416  -0.39626
 Alpha  occ. eigenvalues --   -0.38750  -0.38035  -0.36797  -0.36613  -0.36068
 Alpha  occ. eigenvalues --   -0.35283  -0.34423  -0.33662  -0.33469  -0.33070
 Alpha  occ. eigenvalues --   -0.29144  -0.27478  -0.27035  -0.25806  -0.23714
 Alpha  occ. eigenvalues --   -0.22809
 Alpha virt. eigenvalues --   -0.06070  -0.02730  -0.02178  -0.00750  -0.00704
 Alpha virt. eigenvalues --    0.00224   0.00563   0.00931   0.01418   0.01931
 Alpha virt. eigenvalues --    0.02438   0.02561   0.02612   0.03077   0.03147

 Mulliken charges:
               1
     1  C   -0.241496
     2  N    0.159845
     3  C   -0.974024
     4  C    0.023082
     5  C    0.259996
     6  C   -0.031425
     7  C   -0.566101
     8  C    0.361748
     9  C   -0.062486
    10  N   -0.087453
    11  C   -0.159220
    12  C   -0.457843
    13  S    0.101347
    14  C   -0.362741
    15  C   -0.086064
    16  N   -0.078935
    17  C    0.124018
    18  C   -0.366598
    19  C    0.161118
    20  N   -0.492456
    21  H    0.168882
    22  H    0.148335
    23  H    0.139581
    24  H    0.144592
    25  H    0.151710
    26  H    0.151693
    27  H    0.150270
    28  H    0.120849
    29  H    0.157238
    30  H    0.149692
    31  H    0.156153
    32  H    0.189768
    33  H    0.180321
    34  H    0.134050
    35  H    0.118063
    36  H    0.119178
    37  H    0.203928
    38  H    0.191388
 Sum of Mulliken charges =  -0.00000

 Dipole moment (field-independent basis, Debye):
    X=             -2.9487    Y=             -3.9442    Z=             -2.6387  Tot=              5.5870
 Quadrupole moment (field-independent basis, Debye-Ang):
   XX=           -126.1327   YY=           -135.0068   ZZ=           -130.8405
   XY=            -23.5868   XZ=            -13.6889   YZ=             -9.8904

 Normal termination of Gaussian 16 at Thu Aug  7 22:12:04 2025.
