 Gaussian 16, Revision C.02,
 Gaussian 16:  ES64L-G16RevC.02  7-Dec-2021

 ----------------------------------------------------------
 # td=(50-50,nstates=3) b3lyp/6-31+g(d,p) geom=connectivity
 ----------------------------------------------------------

 -------------------
 Title Card Required
 -------------------
 Symbolic Z-matrix:
 Charge =  0 Multiplicity = 1

                         Standard orientation:
 ---------------------------------------------------------------------
 Center     Atomic      Atomic             Coordinates (Angstroms)
 Number     Number       Type             X           Y           Z
 ---------------------------------------------------------------------
      1          6           0        5.550308    1.304130   -1.415108
      2          7           0        4.843690    0.151260   -0.867734
      3          6           0        4.787516   -1.058654   -1.673640
      4          7           0        3.835874    0.473009   -0.044962
      5          6           0        2.898608   -0.361473    0.244531
      6          6           0        1.856790    0.098975    1.241365
      7          6           0        1.856366   -0.762836    2.447861
      8          7           0        1.859684   -1.449809    3.384535
      9          7           0        0.509025    0.206122    0.673648
     10         15           0       -0.500659   -0.879754    0.033570
     11         16           0       -0.287705   -2.729261   -0.428223
     12          7           0       -1.766712    0.112281    0.158750
     13          6           0       -3.067259    0.227177   -0.476078
     14          6           0       -3.562782   -0.992736   -1.282913
     15          6           0       -5.096329   -0.773540   -1.311515
     16          6           0       -5.366425    0.274505   -0.180660
     17          7           0       -4.095150    0.487133    0.537443
     18         15           0       -0.855928    1.600513    1.001540
     19         16           0       -0.667055    2.989201   -0.366066
     20          1           0        6.576748    1.019099   -1.662041
     21          1           0        5.061583    1.698741   -2.318782
     22          1           0        5.566433    2.085870   -0.655208
     23          1           0        5.694374   -1.118586   -2.277056
     24          1           0        4.744915   -1.944965   -1.031735
     25          1           0        3.911476   -1.066824   -2.342751
     26          1           0        2.810803   -1.374714   -0.146018
     27          1           0        2.140214    1.111686    1.550298
     28          1           0       -3.023060    1.108253   -1.134450
     29          1           0       -3.116371   -1.050443   -2.280169
     30          1           0       -3.312311   -1.914402   -0.747828
     31          1           0       -5.630117   -1.711891   -1.135602
     32          1           0       -5.426204   -0.391499   -2.282493
     33          1           0       -5.686772    1.228364   -0.613878
     34          1           0       -6.140198   -0.039503    0.523937
     35          1           0       -3.992187   -0.202891    1.280943
 ---------------------------------------------------------------------

 SCF Done:  E(RB3LYP) =  -2160.16766003     A.U. after   16 cycles

 Excitation energies and oscillator strengths:

 Excited State   1:      Triplet-A      2.5156 eV  492.85 nm  f=0.0000  <S**2>=2.000
      87 -> 88         0.69531
 This state for optimization and/or second-order correction.
 Total Energy, E(TD-HF/TD-DFT) =  -2160.07521222
 Copying the excited state density for this state as the 1-particle RhoCI density.

 Excited State   2:      Singlet-A      2.7582 eV  449.51 nm  f=0.0103  <S**2>=0.000
      87 -> 88         0.69849

 Excited State   3:      Triplet-A      2.9016 eV  427.30 nm  f=0.0000  <S**2>=2.000
      87 -> 89         0.67309

 Excited State   4:      Triplet-A      3.1768 eV  390.28 nm  f=0.0000  <S**2>=2.000
      84 -> 88        -0.18314
      85 -> 88        -0.42444
      86 -> 88         0.49596

 Excited State   5:      Singlet-A      3.2379 eV  382.92 nm  f=0.0003  <S**2>=0.000
      85 -> 88        -0.18407
      86 -> 88         0.67567

 Excited State   6:      Singlet-A      3.3722 eV  367.66 nm  f=0.0006  <S**2>=0.000
      84 -> 88         0.13779
      85 -> 88         0.54427
      86 -> 88         0.14681
      87 -> 89        -0.38683

 The electronic state is 1-A.
 Alpha  occ. eigenvalues --  -88.90933 -88.84307 -77.24100 -77.16971 -14.40889
 Alpha  occ. eigenvalues --  -14.40050 -14.40035 -14.39796 -14.35752 -14.34439
 Alpha  occ. eigenvalues --  -10.30322 -10.27943 -10.24724 -10.24406 -10.24137
 Alpha  occ. eigenvalues --  -10.23273 -10.22630 -10.20969 -10.20442  -7.97149
 Alpha  occ. eigenvalues --   -7.90605  -6.69861  -6.62712  -5.93700  -5.93004
 Alpha  occ. eigenvalues --   -5.92823  -5.87019  -5.86561  -5.86316  -4.86201
 Alpha  occ. eigenvalues --   -4.86047  -4.85978  -4.79054  -4.79013  -4.78401
 Alpha  occ. eigenvalues --   -1.04285  -1.00107  -0.95799  -0.92513  -0.90251
 Alpha  occ. eigenvalues --   -0.86966  -0.80217  -0.78353  -0.77469  -0.75207
 Alpha  occ. eigenvalues --   -0.73246  -0.72507  -0.68960  -0.64420  -0.61182
 Alpha  occ. eigenvalues --   -0.60001  -0.58629  -0.57857  -0.56180  -0.53751
 Alpha  occ. eigenvalues --   -0.52248  -0.49936  -0.49611  -0.49283  -0.47433
 Alpha  occ. eigenvalues --   -0.46766  -0.46184  -0.45397  -0.43678  -0.43311
 Alpha  occ. eigenvalues --   -0.42935  -0.42557  -0.40907  -0.40533  -0.39029
 Alpha  occ. eigenvalues --   -0.38721  -0.38112  -0.37342  -0.36763  -0.36058
 Alpha  occ. eigenvalues --   -0.35530  -0.34816  -0.34682  -0.32220  -0.31024
 Alpha  occ. eigenvalues --   -0.30171  -0.29592  -0.27821  -0.25591  -0.25052
 Alpha  occ. eigenvalues --   -0.23921  -0.22555
 Alpha virt. eigenvalues --   -0.09639  -0.06285  -0.05953  -0.03354  -0.01000
 Alpha virt. eigenvalues --   -0.00590  -0.00093   0.00481   0.00852   0.01068
 Alpha virt. eigenvalues --    0.01426   0.01697   0.02250   0.02471   0.02667

 Mulliken charges:
               1
     1  C   -0.314226
     2  N    0.115220
     3  C   -0.329703
     4  N   -0.065473
     5  C   -0.081781
     6  C   -0.517426
     7  C    0.132280
     8  N   -0.432886
     9  N   -0.443447
    10  P    0.979083
    11  S    0.055923
    12  N   -0.760713
    13  C   -0.493568
    14  C   -0.178238
    15  C   -0.301312
    16  C   -0.159693
    17  N   -0.197925
    18  P    0.564160
    19  S   -0.261191
    20  H    0.149190
    21  H    0.147911
    22  H    0.172452
    23  H    0.156213
    24  H    0.156864
    25  H    0.158474
    26  H    0.140304
    27  H    0.209173
    28  H    0.177878
    29  H    0.158177
    30  H    0.158267
    31  H    0.151417
    32  H    0.153266
    33  H    0.154417
    34  H    0.141842
    35  H    0.305070
 Sum of Mulliken charges =  -0.00000

 Dipole moment (field-independent basis, Debye):
    X=              0.4216    Y=             -3.0249    Z=             -4.9115  Tot=              5.7837
 Quadrupole moment (field-independent basis, Debye-Ang):
   XX=           -109.8966   YY=           -159.8681   ZZ=           -153.6929
   XY=              9.3198   XZ=            -12.4245   YZ=              7.1740

 Normal termination of Gaussian 16 at Sat Aug  9 21:32:38 2025.
