 Gaussian 16, Revision C.02,
 Gaussian 16:  ES64L-G16RevC.02  7-Dec-2021

 ----------------------------------------------------------
 # td=(50-50,nstates=3) b3lyp/6-31+g(d,p) geom=connectivity
 ----------------------------------------------------------

 -------------------
 Title Card Required
 -------------------
 Symbolic Z-matrix:
 Charge =  0 Multiplicity = 1

                         Standard orientation:
 ---------------------------------------------------------------------
 Center     Atomic      Atomic             Coordinates (Angstroms)
 Number     Number       Type             X           Y           Z
 ---------------------------------------------------------------------
      1          6           0       -3.946800    2.165894   -2.228986
      2          6           0       -3.309867    1.124464   -1.342214
      3          6           0       -4.077014    0.186149   -0.645728
      4          6           0       -3.469725   -0.770811    0.169137
      5          6           0       -2.083004   -0.798346    0.302738
      6         16           0       -1.404331   -2.064892    1.398304
      7          8           0       -0.195197   -1.539589    2.050906
      8          8           0       -2.516500   -2.638334    2.168645
      9          6           0       -1.278158    0.140379   -0.378983
     10          6           0        0.209193    0.163676   -0.289489
     11          6           0        0.938890    1.231638    0.170744
     12          7           0        0.210523    2.435344    0.643704
     13          8           0       -0.262881    2.399673    1.769996
     14          8           0        0.143968    3.373889   -0.146904
     15          6           0        2.380597    1.268699    0.248303
     16         17           0        3.161191    2.675447    0.908702
     17          6           0        3.135900    0.204092   -0.165910
     18          6           0        2.415763   -0.901249   -0.670751
     19          6           0        0.997828   -0.947561   -0.744992
     20          7           0        0.571509   -2.091667   -1.258331
     21          8           0        1.696794   -2.825604   -1.526103
     22          7           0        2.872786   -2.068771   -1.154264
     23          8           0        3.980750   -2.556095   -1.324502
     24          6           0       -1.913965    1.082256   -1.196228
     25          1           0       -5.035316    2.070057   -2.237557
     26          1           0       -3.696907    3.176144   -1.886555
     27          1           0       -3.590143    2.075180   -3.261093
     28          1           0       -5.159406    0.200093   -0.734391
     29          1           0       -4.065677   -1.488660    0.722268
     30          1           0       -0.992124   -3.011495    0.501138
     31          1           0        4.217195    0.201378   -0.107955
     32          1           0       -1.305604    1.801415   -1.736558
 ---------------------------------------------------------------------

 SCF Done:  E(RB3LYP) =  -1973.89314140     A.U. after   19 cycles

 Excitation energies and oscillator strengths:

 Excited State   1:      Triplet-A      1.2330 eV 1005.57 nm  f=0.0000  <S**2>=2.000
      94 -> 95         0.70764
      94 <- 95         0.22329
 This state for optimization and/or second-order correction.
 Total Energy, E(TD-HF/TD-DFT) =  -1973.84783039
 Copying the excited state density for this state as the 1-particle RhoCI density.

 Excited State   2:      Triplet-A      2.8388 eV  436.75 nm  f=0.0000  <S**2>=2.000
      81 -> 96         0.22735
      83 -> 96         0.24326
      84 -> 95        -0.12972
      84 -> 96         0.59056
      84 <- 96         0.15558

 Excited State   3:      Triplet-A      2.9802 eV  416.03 nm  f=0.0000  <S**2>=2.000
      84 -> 96        -0.11687
      87 -> 95         0.16979
      89 -> 95         0.18026
      90 -> 96        -0.13511
      91 -> 95        -0.17264
      91 -> 96         0.11549
      92 -> 95         0.35649
      94 -> 95        -0.11809
      94 -> 96         0.32221
      94 -> 97        -0.15908
      94 -> 98        -0.11419
      94 ->100         0.15855

 Excited State   4:      Singlet-A      3.0667 eV  404.29 nm  f=0.1059  <S**2>=0.000
      94 -> 95         0.64650
      94 -> 96        -0.26162

 Excited State   5:      Singlet-A      3.3003 eV  375.68 nm  f=0.0491  <S**2>=0.000
      94 -> 95         0.26039
      94 -> 96         0.63279

 Excited State   6:      Singlet-A      3.6374 eV  340.86 nm  f=0.0027  <S**2>=0.000
      93 -> 95         0.70174

 The electronic state is 1-A.
 Alpha  occ. eigenvalues -- -101.59983 -89.12249 -19.31698 -19.23477 -19.23280
 Alpha  occ. eigenvalues --  -19.22770 -19.17031 -19.17017 -14.61679 -14.58528
 Alpha  occ. eigenvalues --  -14.44825 -10.32270 -10.31494 -10.30397 -10.29872
 Alpha  occ. eigenvalues --  -10.28861 -10.27277 -10.26774 -10.26095 -10.24843
 Alpha  occ. eigenvalues --  -10.24129 -10.23832 -10.23429 -10.21656  -9.51431
 Alpha  occ. eigenvalues --   -8.15098  -7.27893  -7.26845  -7.26808  -6.11531
 Alpha  occ. eigenvalues --   -6.11474  -6.11420  -1.27354  -1.25722  -1.15898
 Alpha  occ. eigenvalues --   -1.12427  -1.10248  -1.02421  -0.97451  -0.93083
 Alpha  occ. eigenvalues --   -0.92802  -0.91097  -0.88134  -0.83294  -0.82379
 Alpha  occ. eigenvalues --   -0.80794  -0.77295  -0.74984  -0.70738  -0.69257
 Alpha  occ. eigenvalues --   -0.68124  -0.67698  -0.64689  -0.61842  -0.60663
 Alpha  occ. eigenvalues --   -0.59810  -0.57706  -0.57482  -0.56304  -0.55416
 Alpha  occ. eigenvalues --   -0.55236  -0.53603  -0.52503  -0.51855  -0.50975
 Alpha  occ. eigenvalues --   -0.49504  -0.48086  -0.47474  -0.47363  -0.46781
 Alpha  occ. eigenvalues --   -0.46214  -0.45411  -0.45181  -0.45099  -0.42256
 Alpha  occ. eigenvalues --   -0.41018  -0.40447  -0.40256  -0.38993  -0.38909
 Alpha  occ. eigenvalues --   -0.36275  -0.36219  -0.35527  -0.35212  -0.34753
 Alpha  occ. eigenvalues --   -0.34420  -0.33691  -0.33381  -0.32514  -0.31746
 Alpha  occ. eigenvalues --   -0.31533  -0.29815  -0.29408  -0.26147
 Alpha virt. eigenvalues --   -0.13846  -0.11593  -0.07684  -0.06304  -0.05064
 Alpha virt. eigenvalues --   -0.04166  -0.02853  -0.01073  -0.00622  -0.00474
 Alpha virt. eigenvalues --    0.00251   0.00938   0.01480   0.02031   0.02265

 Mulliken charges:
               1
     1  C   -0.303098
     2  C    0.314319
     3  C   -1.067658
     4  C   -0.015033
     5  C   -0.794239
     6  S    1.576249
     7  O   -0.451327
     8  O   -0.567067
     9  C    0.439251
    10  C    1.069876
    11  C   -0.227712
    12  N   -0.369967
    13  O    0.054447
    14  O    0.052937
    15  C   -0.251556
    16  Cl   0.336916
    17  C    0.662897
    18  C   -0.610952
    19  C   -0.659407
    20  N   -0.518602
    21  O    0.423820
    22  N   -0.563852
    23  O    0.069476
    24  C    0.177681
    25  H    0.156650
    26  H    0.181081
    27  H    0.174510
    28  H    0.139502
    29  H    0.182477
    30  H    0.059030
    31  H    0.184711
    32  H    0.144636
 Sum of Mulliken charges =  -0.00000

 Dipole moment (field-independent basis, Debye):
    X=             -1.6193    Y=              2.1392    Z=             -4.6768  Tot=              5.3917
 Quadrupole moment (field-independent basis, Debye-Ang):
   XX=           -136.2631   YY=           -165.6768   ZZ=           -163.0468
   XY=              1.4585   XZ=             13.9795   YZ=             -2.2481

 Normal termination of Gaussian 16 at Sun Sep 21 21:35:35 2025.
