 Gaussian 16, Revision C.02,
 Gaussian 16:  ES64L-G16RevC.02  7-Dec-2021

 ----------------------------------------------------------
 # td=(50-50,nstates=3) b3lyp/6-31+g(d,p) geom=connectivity
 ----------------------------------------------------------

 -------------------
 Title Card Required
 -------------------
 Symbolic Z-matrix:
 Charge =  0 Multiplicity = 1

                         Standard orientation:
 ---------------------------------------------------------------------
 Center     Atomic      Atomic             Coordinates (Angstroms)
 Number     Number       Type             X           Y           Z
 ---------------------------------------------------------------------
      1          6           0       -5.269599   -1.457897   -0.091381
      2          7           0       -3.822156   -1.493703    0.097372
      3          6           0       -2.984656   -1.750676   -0.973723
      4          6           0       -1.643040   -1.643246   -0.906191
      5          6           0       -0.917809   -1.281441    0.375072
      6          6           0        0.235155   -0.283820    0.152945
      7          6           0        1.491426   -0.824739    0.112662
      8          6           0        2.702777   -0.051121    0.026890
      9          6           0        3.951775   -0.664018   -0.048770
     10          6           0        5.159291    0.095223   -0.076033
     11          7           0        6.139623    0.724895   -0.098870
     12          6           0        4.090554   -2.082818   -0.104674
     13          7           0        4.190939   -3.243049   -0.149141
     14          6           0        2.567596    1.381924    0.081784
     15          6           0        1.336894    1.946908    0.122254
     16          6           0        0.105324    1.171717    0.056508
     17          6           0       -1.072986    1.909672   -0.103811
     18          6           0       -2.368614    1.459702   -0.491236
     19          7           0       -3.453178    1.287850   -0.884481
     20          6           0       -1.043450    3.340992    0.003107
     21          7           0       -1.049382    4.502120    0.098796
     22          6           0       -1.922229   -0.870349    1.433683
     23          6           0       -3.249387   -1.029150    1.270047
     24          1           0       -5.567354   -2.260692   -0.770916
     25          1           0       -5.763033   -1.626333    0.868668
     26          1           0       -5.596819   -0.496521   -0.502425
     27          1           0       -3.484803   -2.038708   -1.891951
     28          1           0       -1.053103   -1.877582   -1.785921
     29          1           0       -0.390325   -2.179721    0.741770
     30          1           0        1.591672   -1.903070    0.192522
     31          1           0        3.455640    2.004890    0.078706
     32          1           0        1.257722    3.027912    0.138769
     33          1           0       -1.553260   -0.523011    2.393361
     34          1           0       -3.951399   -0.775146    2.056890
 ---------------------------------------------------------------------

 SCF Done:  E(RB3LYP) =  -966.185582548     A.U. after   21 cycles

 Excitation energies and oscillator strengths:

 Excited State   1:      Triplet-A      0.3263 eV 3799.47 nm  f=0.0000  <S**2>=2.000
      76 -> 78         0.18984
      77 -> 78         0.70805
      76 <- 78         0.13385
      77 <- 78         0.14630
 This state for optimization and/or second-order correction.
 Total Energy, E(TD-HF/TD-DFT) =  -966.173590518
 Copying the excited state density for this state as the 1-particle RhoCI density.

 Excited State   2:      Singlet-A      0.6974 eV 1777.78 nm  f=0.0293  <S**2>=0.000
      77 -> 78         0.71554
      77 <- 78        -0.12157

 Excited State   3:      Triplet-A      0.7131 eV 1738.69 nm  f=0.0000  <S**2>=2.000
      76 -> 78         0.75481
      77 -> 78        -0.13992
      76 <- 78         0.31804

 Excited State   4:      Triplet-A      2.4076 eV  514.97 nm  f=0.0000  <S**2>=2.000
      74 -> 78         0.46079
      75 -> 78         0.51742

 Excited State   5:      Singlet-A      2.6876 eV  461.32 nm  f=0.1619  <S**2>=0.000
      75 -> 78         0.61935
      76 -> 78        -0.32603

 Excited State   6:      Singlet-A      2.8394 eV  436.66 nm  f=0.6675  <S**2>=0.000
      75 -> 78         0.32301
      76 -> 78         0.61919
      77 -> 80         0.14237
      76 <- 78        -0.14262

 The electronic state is 1-A.
 Alpha  occ. eigenvalues --  -14.40693 -14.37883 -14.37834 -14.37765 -14.37415
 Alpha  occ. eigenvalues --  -10.30930 -10.30414 -10.28909 -10.28382 -10.27102
 Alpha  occ. eigenvalues --  -10.27034 -10.26996 -10.26963 -10.26483 -10.25583
 Alpha  occ. eigenvalues --  -10.25319 -10.25307 -10.25270 -10.25035 -10.24687
 Alpha  occ. eigenvalues --  -10.24555 -10.21202 -10.21156  -0.99897  -0.95713
 Alpha  occ. eigenvalues --   -0.95323  -0.93769  -0.93654  -0.92633  -0.88228
 Alpha  occ. eigenvalues --   -0.85579  -0.83143  -0.80728  -0.79357  -0.76221
 Alpha  occ. eigenvalues --   -0.74226  -0.68686  -0.67856  -0.65745  -0.65398
 Alpha  occ. eigenvalues --   -0.62682  -0.58970  -0.58385  -0.56553  -0.54689
 Alpha  occ. eigenvalues --   -0.51912  -0.51594  -0.50077  -0.48974  -0.48393
 Alpha  occ. eigenvalues --   -0.46761  -0.46281  -0.46043  -0.45206  -0.44709
 Alpha  occ. eigenvalues --   -0.44335  -0.42839  -0.41381  -0.40419  -0.40257
 Alpha  occ. eigenvalues --   -0.40160  -0.39751  -0.39637  -0.38842  -0.38488
 Alpha  occ. eigenvalues --   -0.37638  -0.37515  -0.37435  -0.37332  -0.36805
 Alpha  occ. eigenvalues --   -0.36318  -0.35281  -0.33720  -0.31467  -0.29403
 Alpha  occ. eigenvalues --   -0.26332  -0.21379
 Alpha virt. eigenvalues --   -0.17233  -0.06597  -0.06390  -0.03987  -0.03159
 Alpha virt. eigenvalues --   -0.02956  -0.01837  -0.00756  -0.00156   0.00383
 Alpha virt. eigenvalues --    0.00707   0.00845   0.00965   0.01212   0.01855

 Mulliken charges:
               1
     1  C   -0.198943
     2  N    0.052159
     3  C    0.007919
     4  C   -0.449693
     5  C    0.301246
     6  C   -0.360966
     7  C   -0.520211
     8  C    1.267300
     9  C    0.715569
    10  C   -0.124982
    11  N   -0.474367
    12  C   -0.509089
    13  N   -0.468103
    14  C   -0.482036
    15  C   -0.238555
    16  C   -0.006168
    17  C    1.775586
    18  C   -0.602013
    19  N   -0.361760
    20  C   -0.120758
    21  N   -0.464576
    22  C   -0.316746
    23  C   -0.054610
    24  H    0.148322
    25  H    0.145446
    26  H    0.191160
    27  H    0.132114
    28  H    0.133523
    29  H    0.140524
    30  H    0.147535
    31  H    0.170775
    32  H    0.164904
    33  H    0.125997
    34  H    0.133497
 Sum of Mulliken charges =  -0.00000

 Dipole moment (field-independent basis, Debye):
    X=             -5.7421    Y=             -2.4815    Z=              0.9736  Tot=              6.3307
 Quadrupole moment (field-independent basis, Debye-Ang):
   XX=           -155.3195   YY=           -161.5456   ZZ=           -130.1422
   XY=             22.5466   XZ=             -2.1898   YZ=              1.9608

 Normal termination of Gaussian 16 at Thu Aug  7 22:14:44 2025.
