 Gaussian 16, Revision C.02,
 Gaussian 16:  ES64L-G16RevC.02  7-Dec-2021

 ----------------------------------------------------------
 # td=(50-50,nstates=3) b3lyp/6-31+g(d,p) geom=connectivity
 ----------------------------------------------------------

 -------------------
 Title Card Required
 -------------------
 Symbolic Z-matrix:
 Charge =  0 Multiplicity = 1

                         Standard orientation:
 ---------------------------------------------------------------------
 Center     Atomic      Atomic             Coordinates (Angstroms)
 Number     Number       Type             X           Y           Z
 ---------------------------------------------------------------------
      1          6           0       -3.032738   -0.541798   -0.272100
      2          6           0       -1.953528    0.069735    0.223138
      3          6           0       -0.651577   -0.625974    0.513112
      4          6           0        0.528105   -0.076815   -0.359220
      5          6           0        0.768595    1.357613   -0.117783
      6          7           0        0.917581    2.491379    0.077761
      7          6           0        1.759249   -0.853455   -0.130007
      8          7           0        2.700247   -1.507313    0.051657
      9          1           0       -3.955847    0.000231   -0.453014
     10          1           0       -3.034653   -1.604651   -0.503860
     11          1           0       -1.994751    1.134463    0.449484
     12          1           0       -0.372512   -0.507039    1.566347
     13          1           0       -0.733548   -1.697904    0.310001
     14          1           0        0.257877   -0.189399   -1.417727
 ---------------------------------------------------------------------

 SCF Done:  E(RB3LYP) =  -341.707281582     A.U. after   13 cycles

 Excitation energies and oscillator strengths:

 Excited State   1:      Triplet-A      4.0212 eV  308.32 nm  f=0.0000  <S**2>=2.000
      28 -> 29         0.65267
      28 -> 30         0.16609
      28 <- 29         0.10700
 This state for optimization and/or second-order correction.
 Total Energy, E(TD-HF/TD-DFT) =  -341.559503945
 Copying the excited state density for this state as the 1-particle RhoCI density.

 Excited State   2:      Triplet-A      5.7447 eV  215.82 nm  f=0.0000  <S**2>=2.000
      21 -> 31        -0.10259
      24 -> 32         0.15195
      24 -> 33        -0.19575
      24 -> 35        -0.11740
      25 -> 29        -0.10960
      25 -> 30         0.13755
      25 -> 31        -0.26094
      26 -> 37        -0.23442
      27 -> 29         0.14929
      27 -> 30        -0.23261
      27 -> 31        -0.11147
      27 -> 32         0.22050
      28 -> 30         0.15910

 Excited State   3:      Triplet-A      5.7709 eV  214.84 nm  f=0.0000  <S**2>=2.000
      24 -> 29        -0.10305
      24 -> 30         0.18826
      24 -> 32        -0.13969
      25 -> 37         0.18280
      26 -> 29         0.13647
      26 -> 30        -0.22309
      26 -> 31         0.38771
      27 -> 33         0.21840
      27 -> 35         0.12431

 Excited State   4:      Singlet-A      6.4884 eV  191.08 nm  f=0.0304  <S**2>=0.000
      28 -> 29        -0.28463
      28 -> 30         0.63821

 Excited State   5:      Singlet-A      6.6418 eV  186.67 nm  f=0.0236  <S**2>=0.000
      28 -> 29         0.13678
      28 -> 31         0.68525

 Excited State   6:      Singlet-A      6.9799 eV  177.63 nm  f=0.3579  <S**2>=0.000
      28 -> 29         0.58042
      28 -> 30         0.27747
      28 -> 31        -0.11056
      28 -> 32         0.15371
      28 -> 36         0.11205

 The electronic state is 1-A.
 Alpha  occ. eigenvalues --  -14.37505 -14.37472 -10.31222 -10.26769 -10.26734
 Alpha  occ. eigenvalues --  -10.25029 -10.23006 -10.21897  -0.95028  -0.93610
 Alpha  occ. eigenvalues --   -0.87232  -0.80655  -0.71307  -0.61859  -0.58034
 Alpha  occ. eigenvalues --   -0.55773  -0.51023  -0.46708  -0.46011  -0.41817
 Alpha  occ. eigenvalues --   -0.39956  -0.39631  -0.38777  -0.37350  -0.36765
 Alpha  occ. eigenvalues --   -0.36085  -0.35467  -0.29798
 Alpha virt. eigenvalues --   -0.03913  -0.02774  -0.02503  -0.00213   0.00423
 Alpha virt. eigenvalues --    0.00896   0.01370   0.01984   0.02448   0.04290
 Alpha virt. eigenvalues --    0.05036   0.05614   0.05962   0.06383   0.07863

 Mulliken charges:
               1
     1  C   -0.435849
     2  C    0.218284
     3  C   -0.440144
     4  C    0.252583
     5  C    0.249863
     6  N   -0.462830
     7  C    0.051320
     8  N   -0.454910
     9  H    0.148225
    10  H    0.137190
    11  H    0.151618
    12  H    0.186620
    13  H    0.168050
    14  H    0.229979
 Sum of Mulliken charges =  -0.00000

 Dipole moment (field-independent basis, Debye):
    X=             -4.1323    Y=             -1.6919    Z=             -0.8657  Tot=              4.5484
 Quadrupole moment (field-independent basis, Debye-Ang):
   XX=            -55.1791   YY=            -58.3967   ZZ=            -46.3696
   XY=              3.1439   XZ=             -0.3794   YZ=              0.3385

 Normal termination of Gaussian 16 at Thu Aug  7 22:02:32 2025.
