 Gaussian 16, Revision C.02,
 Gaussian 16:  ES64L-G16RevC.02  7-Dec-2021

 ----------------------------------------------------------
 # td=(50-50,nstates=3) b3lyp/6-31+g(d,p) geom=connectivity
 ----------------------------------------------------------

 -------------------
 Title Card Required
 -------------------
 Symbolic Z-matrix:
 Charge =  0 Multiplicity = 1

                         Standard orientation:
 ---------------------------------------------------------------------
 Center     Atomic      Atomic             Coordinates (Angstroms)
 Number     Number       Type             X           Y           Z
 ---------------------------------------------------------------------
      1          6           0        4.943176   -1.045390   -0.619223
      2          6           0        3.586206   -0.343934   -0.621999
      3          7           0        3.060897   -0.224744    0.739735
      4          6           0        1.835830    0.543946    0.900314
      5          6           0        0.566682   -0.066826    0.265822
      6          6           0       -0.698375    0.794448    0.516111
      7          6           0       -0.575770    2.126572   -0.102638
      8          7           0       -0.518635    3.179291   -0.590200
      9          6           0       -1.995709    0.132973    0.071925
     10          7           0       -3.065143    0.865263   -0.260080
     11         16           0       -2.210949   -1.544996    0.072225
     12          8           0       -3.681233   -1.746553   -0.353532
     13          1           0        5.345824   -1.110588   -1.635286
     14          1           0        5.656756   -0.502834    0.008119
     15          1           0        4.858418   -2.067892   -0.231419
     16          1           0        2.905261   -0.877579   -1.309243
     17          1           0        3.697182    0.673455   -1.018391
     18          1           0        2.979730   -1.139686    1.176642
     19          1           0        1.663228    0.682067    1.976199
     20          1           0        2.011827    1.542590    0.481150
     21          1           0        0.693023   -0.204632   -0.811989
     22          1           0        0.391489   -1.056483    0.703065
     23          1           0       -0.783782    0.972345    1.599736
     24          1           0       -3.894613    0.332238   -0.526981
     25          1           0       -3.011355    1.859963   -0.426997
 ---------------------------------------------------------------------

 SCF Done:  E(RB3LYP) =  -912.216389119     A.U. after   16 cycles

 Excitation energies and oscillator strengths:

 Excited State   1:      Triplet-A      1.9961 eV  621.15 nm  f=0.0000  <S**2>=2.000
      50 -> 51         0.71000
      50 <- 51         0.14780
 This state for optimization and/or second-order correction.
 Total Energy, E(TD-HF/TD-DFT) =  -912.143035314
 Copying the excited state density for this state as the 1-particle RhoCI density.

 Excited State   2:      Triplet-A      3.9804 eV  311.49 nm  f=0.0000  <S**2>=2.000
      48 -> 51         0.66678
      50 -> 53         0.14970

 Excited State   3:      Singlet-A      4.0465 eV  306.40 nm  f=0.1035  <S**2>=0.000
      49 -> 51        -0.25089
      50 -> 51         0.64013
      50 -> 52         0.10496

 Excited State   4:      Triplet-A      4.0469 eV  306.37 nm  f=0.0000  <S**2>=2.000
      48 -> 51        -0.19343
      50 -> 52         0.14515
      50 -> 53         0.57716
      50 -> 55         0.21381
      50 -> 56        -0.12598

 Excited State   5:      Singlet-A      4.2363 eV  292.67 nm  f=0.0294  <S**2>=0.000
      49 -> 51         0.65468
      50 -> 51         0.23053

 Excited State   6:      Singlet-A      4.3953 eV  282.08 nm  f=0.0036  <S**2>=0.000
      50 -> 52         0.14923
      50 -> 53         0.63604
      50 -> 55         0.17724

 The electronic state is 1-A.
 Alpha  occ. eigenvalues --  -88.97211 -19.13107 -14.40770 -14.37653 -14.34312
 Alpha  occ. eigenvalues --  -10.30571 -10.29238 -10.26746 -10.23912 -10.23273
 Alpha  occ. eigenvalues --  -10.22590 -10.18943  -8.02278  -5.98780  -5.98312
 Alpha  occ. eigenvalues --   -5.98107  -1.01757  -0.97126  -0.94259  -0.92617
 Alpha  occ. eigenvalues --   -0.85897  -0.77702  -0.75129  -0.72285  -0.65169
 Alpha  occ. eigenvalues --   -0.62139  -0.61431  -0.58938  -0.56463  -0.52788
 Alpha  occ. eigenvalues --   -0.49778  -0.48906  -0.46943  -0.45111  -0.44265
 Alpha  occ. eigenvalues --   -0.43260  -0.41648  -0.41015  -0.39800  -0.38987
 Alpha  occ. eigenvalues --   -0.38468  -0.37331  -0.36901  -0.36583  -0.36237
 Alpha  occ. eigenvalues --   -0.35985  -0.34770  -0.27547  -0.24230  -0.22161
 Alpha virt. eigenvalues --   -0.06707  -0.02440  -0.02062  -0.00618   0.00096
 Alpha virt. eigenvalues --    0.00576   0.00886   0.01600   0.02315   0.03078
 Alpha virt. eigenvalues --    0.04033   0.04331   0.04745   0.05199   0.06025

 Mulliken charges:
               1
     1  C   -0.648810
     2  C    0.036086
     3  N   -0.357430
     4  C   -0.277931
     5  C   -0.358810
     6  C    0.309920
     7  C    0.058935
     8  N   -0.480354
     9  C   -0.342539
    10  N   -0.473335
    11  S    0.725322
    12  O   -0.699939
    13  H    0.147885
    14  H    0.166810
    15  H    0.140469
    16  H    0.116543
    17  H    0.133174
    18  H    0.273965
    19  H    0.137284
    20  H    0.156318
    21  H    0.176171
    22  H    0.157475
    23  H    0.214736
    24  H    0.361978
    25  H    0.326078
 Sum of Mulliken charges =  -0.00000

 Dipole moment (field-independent basis, Debye):
    X=              2.5142    Y=              0.4426    Z=              1.3198  Tot=              2.8738
 Quadrupole moment (field-independent basis, Debye-Ang):
   XX=            -92.9750   YY=            -94.8683   ZZ=            -81.0750
   XY=            -17.2087   XZ=             -3.9935   YZ=              0.5363

 Normal termination of Gaussian 16 at Thu Aug  7 22:05:51 2025.
