 Gaussian 16, Revision C.02,
 Gaussian 16:  ES64L-G16RevC.02  7-Dec-2021

 ----------------------------------------------------------
 # td=(50-50,nstates=3) b3lyp/6-31+g(d,p) geom=connectivity
 ----------------------------------------------------------

 -------------------
 Title Card Required
 -------------------
 Symbolic Z-matrix:
 Charge =  0 Multiplicity = 1

                         Standard orientation:
 ---------------------------------------------------------------------
 Center     Atomic      Atomic             Coordinates (Angstroms)
 Number     Number       Type             X           Y           Z
 ---------------------------------------------------------------------
      1          6           0        5.843801    0.447427    0.086262
      2          6           0        4.454519   -0.105483   -0.248798
      3          6           0        3.363183    0.408268    0.714248
      4          6           0        2.009444   -0.168591    0.427694
      5          6           0        0.919665    0.564136    0.123617
      6          6           0       -0.420247    0.078261   -0.153747
      7          6           0       -1.484431    0.889765   -0.382243
      8          6           0       -1.482928    2.307739   -0.412511
      9          7           0       -1.490717    3.472647   -0.454007
     10          6           0       -2.741625    0.063197   -0.595642
     11          6           0       -3.717262    0.223751    0.515775
     12          7           0       -4.486667    0.343607    1.376883
     13          8           0       -2.268395   -1.268798   -0.681250
     14          6           0       -0.888598   -1.376024   -0.213995
     15          6           0       -0.895793   -2.049562    1.168009
     16          6           0       -0.167255   -2.224974   -1.266758
     17          1           0        6.597177    0.070235   -0.612893
     18          1           0        5.858500    1.542036    0.033004
     19          1           0        6.152601    0.159140    1.097821
     20          1           0        4.477413   -1.203140   -0.216953
     21          1           0        4.182254    0.168734   -1.275702
     22          1           0        3.318374    1.503483    0.676928
     23          1           0        3.653016    0.138201    1.741267
     24          1           0        1.941315   -1.253754    0.474524
     25          1           0        1.025501    1.647791    0.092525
     26          1           0       -3.261169    0.318170   -1.528526
     27          1           0        0.118826   -2.182174    1.553348
     28          1           0       -1.463217   -1.454238    1.888381
     29          1           0       -1.368002   -3.032567    1.084095
     30          1           0        0.853445   -2.468062   -0.963023
     31          1           0       -0.718313   -3.160499   -1.399011
     32          1           0       -0.133713   -1.704219   -2.227377
 ---------------------------------------------------------------------

 SCF Done:  E(RB3LYP) =  -689.727091426     A.U. after   16 cycles

 Excitation energies and oscillator strengths:

 Excited State   1:      Triplet-A      2.3992 eV  516.76 nm  f=0.0000  <S**2>=2.000
      58 -> 59         0.70097
      58 <- 59         0.13164
 This state for optimization and/or second-order correction.
 Total Energy, E(TD-HF/TD-DFT) =  -689.638920755
 Copying the excited state density for this state as the 1-particle RhoCI density.

 Excited State   2:      Triplet-A      4.2497 eV  291.75 nm  f=0.0000  <S**2>=2.000
      56 -> 59         0.50020
      57 -> 59         0.30980
      58 -> 61         0.11064
      58 -> 63        -0.16013
      58 -> 64         0.24113

 Excited State   3:      Singlet-A      4.5256 eV  273.96 nm  f=0.5331  <S**2>=0.000
      57 -> 59        -0.23648
      58 -> 59         0.65950

 Excited State   4:      Triplet-A      4.7798 eV  259.39 nm  f=0.0000  <S**2>=2.000
      56 -> 59        -0.27055
      57 -> 59         0.62350

 Excited State   5:      Singlet-A      4.8516 eV  255.55 nm  f=0.1511  <S**2>=0.000
      57 -> 59         0.66290
      58 -> 59         0.23273

 Excited State   6:      Singlet-A      5.6127 eV  220.90 nm  f=0.0057  <S**2>=0.000
      51 -> 59         0.10466
      52 -> 59        -0.13114
      54 -> 59        -0.15878
      55 -> 59         0.63468
      56 -> 59        -0.13697

 The electronic state is 1-A.
 Alpha  occ. eigenvalues --  -19.19518 -14.36153 -14.35866 -10.31738 -10.29092
 Alpha  occ. eigenvalues --  -10.26109 -10.25713 -10.25303 -10.24533 -10.23596
 Alpha  occ. eigenvalues --  -10.22958 -10.21627 -10.21005 -10.20691 -10.20483
 Alpha  occ. eigenvalues --  -10.19566  -1.08727  -0.92858  -0.92191  -0.87318
 Alpha  occ. eigenvalues --   -0.83905  -0.83062  -0.78502  -0.74377  -0.72164
 Alpha  occ. eigenvalues --   -0.71102  -0.67101  -0.63091  -0.60610  -0.59319
 Alpha  occ. eigenvalues --   -0.55842  -0.55254  -0.51597  -0.49190  -0.48143
 Alpha  occ. eigenvalues --   -0.47104  -0.45581  -0.45105  -0.43888  -0.42899
 Alpha  occ. eigenvalues --   -0.42154  -0.41951  -0.40040  -0.39458  -0.39297
 Alpha  occ. eigenvalues --   -0.38766  -0.38061  -0.37892  -0.37397  -0.36716
 Alpha  occ. eigenvalues --   -0.36112  -0.35728  -0.35415  -0.34962  -0.33868
 Alpha  occ. eigenvalues --   -0.33467  -0.30149  -0.26223
 Alpha virt. eigenvalues --   -0.09332  -0.01858  -0.00968  -0.00585  -0.00370
 Alpha virt. eigenvalues --   -0.00099   0.00333   0.00933   0.01502   0.01951
 Alpha virt. eigenvalues --    0.02637   0.03119   0.03730   0.04218   0.04690

 Mulliken charges:
               1
     1  C   -0.663584
     2  C   -0.092676
     3  C   -0.463702
     4  C    0.222354
     5  C   -0.404580
     6  C    0.433133
     7  C    0.218413
     8  C   -0.328645
     9  N   -0.553142
    10  C    0.434095
    11  C    0.187621
    12  N   -0.457285
    13  O   -0.222841
    14  C    0.096966
    15  C   -0.399335
    16  C   -0.437606
    17  H    0.151652
    18  H    0.151347
    19  H    0.148311
    20  H    0.139600
    21  H    0.149864
    22  H    0.145930
    23  H    0.155739
    24  H    0.109033
    25  H    0.143105
    26  H    0.182717
    27  H    0.144872
    28  H    0.169583
    29  H    0.167734
    30  H    0.140887
    31  H    0.170034
    32  H    0.160404
 Sum of Mulliken charges =  -0.00000

 Dipole moment (field-independent basis, Debye):
    X=              6.2557    Y=             -4.1094    Z=             -1.4296  Tot=              7.6200
 Quadrupole moment (field-independent basis, Debye-Ang):
   XX=           -108.8114   YY=           -110.2053   ZZ=            -99.4392
   XY=              4.4874   XZ=             10.9371   YZ=             -0.7110

 Normal termination of Gaussian 16 at Thu Aug  7 22:10:35 2025.
