 Gaussian 16, Revision C.02,
 Gaussian 16:  ES64L-G16RevC.02  7-Dec-2021

 ----------------------------------------------------------
 # td=(50-50,nstates=3) b3lyp/6-31+g(d,p) geom=connectivity
 ----------------------------------------------------------

 -------------------
 Title Card Required
 -------------------
 Symbolic Z-matrix:
 Charge =  0 Multiplicity = 1

                         Standard orientation:
 ---------------------------------------------------------------------
 Center     Atomic      Atomic             Coordinates (Angstroms)
 Number     Number       Type             X           Y           Z
 ---------------------------------------------------------------------
      1          6           0       -4.531133   -0.509002   -0.947580
      2          6           0       -3.019502   -0.246300   -0.905873
      3          6           0       -2.315449   -0.838324    0.336685
      4          6           0       -2.733776   -0.177439    1.663585
      5          6           0       -0.780632   -0.984470    0.177694
      6          6           0        0.145496    0.222839    0.077958
      7          6           0       -0.305294    1.549536    0.059756
      8          6           0        0.577435    2.628714   -0.037345
      9          6           0        1.948118    2.399488   -0.120295
     10          6           0        2.423592    1.086762   -0.105924
     11          6           0        1.544042    0.004308   -0.008454
     12          6           0        2.072314   -1.428748    0.006615
     13          6           0        3.527124   -1.556934   -0.111070
     14          7           0        4.678059   -1.680234   -0.202930
     15          1           0       -4.966441   -0.129033   -1.877917
     16          1           0       -4.748550   -1.582679   -0.893655
     17          1           0       -5.055678   -0.021467   -0.119103
     18          1           0       -2.845169    0.833120   -0.976529
     19          1           0       -2.561097   -0.683357   -1.803308
     20          1           0       -2.662203   -1.881599    0.398545
     21          1           0       -2.216397   -0.645900    2.508592
     22          1           0       -3.808270   -0.292840    1.836157
     23          1           0       -2.508545    0.892392    1.695497
     24          1           0       -0.437288   -1.599292    1.022747
     25          1           0       -0.612645   -1.610394   -0.711993
     26          1           0       -1.364867    1.756655    0.121293
     27          1           0        0.187015    3.642255   -0.047900
     28          1           0        2.645909    3.227852   -0.196331
     29          1           0        3.491701    0.903843   -0.171997
     30          1           0        1.774833   -1.938950    0.932258
     31          1           0        1.627259   -2.011540   -0.810364
 ---------------------------------------------------------------------

 SCF Done:  E(RB3LYP) =  -560.405444555     A.U. after   14 cycles

 Excitation energies and oscillator strengths:

 Excited State   1:      Triplet-A      3.6950 eV  335.55 nm  f=0.0000  <S**2>=2.000
      50 -> 52        -0.11902
      50 -> 53        -0.41888
      51 -> 52         0.53641
      51 -> 53        -0.10677
 This state for optimization and/or second-order correction.
 Total Energy, E(TD-HF/TD-DFT) =  -560.269655610
 Copying the excited state density for this state as the 1-particle RhoCI density.

 Excited State   2:      Triplet-A      4.5794 eV  270.74 nm  f=0.0000  <S**2>=2.000
      50 -> 52        -0.41871
      51 -> 53         0.55836

 Excited State   3:      Triplet-A      4.6102 eV  268.93 nm  f=0.0000  <S**2>=2.000
      50 -> 53         0.52277
      51 -> 52         0.44793
      51 -> 53         0.11672

 Excited State   4:      Singlet-A      5.2544 eV  235.96 nm  f=0.0009  <S**2>=0.000
      50 -> 52         0.46667
      50 -> 53        -0.11063
      51 -> 52         0.12702
      51 -> 53         0.50051

 Excited State   5:      Singlet-A      5.8534 eV  211.82 nm  f=0.0290  <S**2>=0.000
      50 -> 53        -0.38079
      51 -> 52         0.54488
      51 -> 53        -0.12796
      51 -> 54        -0.16314

 Excited State   6:      Singlet-A      5.8973 eV  210.24 nm  f=0.0042  <S**2>=0.000
      50 -> 53        -0.11512
      51 -> 52         0.11096
      51 -> 54         0.67461
      51 -> 56         0.10125

 The electronic state is 1-A.
 Alpha  occ. eigenvalues --  -14.34710 -10.25082 -10.24108 -10.22307 -10.21758
 Alpha  occ. eigenvalues --  -10.20799 -10.20743 -10.20320 -10.20303 -10.20188
 Alpha  occ. eigenvalues --  -10.20173 -10.19352 -10.18610 -10.18576  -0.91672
 Alpha  occ. eigenvalues --   -0.87829  -0.82609  -0.80974  -0.77351  -0.73999
 Alpha  occ. eigenvalues --   -0.73151  -0.69712  -0.64653  -0.61517  -0.60269
 Alpha  occ. eigenvalues --   -0.56695  -0.52699  -0.51669  -0.48540  -0.47480
 Alpha  occ. eigenvalues --   -0.46954  -0.45582  -0.45443  -0.44119  -0.43310
 Alpha  occ. eigenvalues --   -0.42733  -0.41043  -0.39356  -0.38222  -0.37698
 Alpha  occ. eigenvalues --   -0.37312  -0.36629  -0.36349  -0.35680  -0.33763
 Alpha  occ. eigenvalues --   -0.33725  -0.33252  -0.32828  -0.32167  -0.26259
 Alpha  occ. eigenvalues --   -0.25515
 Alpha virt. eigenvalues --   -0.02400  -0.02131  -0.01201   0.00150   0.00818
 Alpha virt. eigenvalues --    0.01308   0.01806   0.02359   0.02486   0.02713
 Alpha virt. eigenvalues --    0.03294   0.04200   0.04658   0.05363   0.05534

 Mulliken charges:
               1
     1  C   -0.609746
     2  C   -0.177227
     3  C    0.365065
     4  C   -0.596517
     5  C   -0.890617
     6  C    0.703364
     7  C   -0.315827
     8  C   -0.166363
     9  C   -0.524339
    10  C   -0.552184
    11  C    1.184460
    12  C   -0.135549
    13  C   -0.209516
    14  N   -0.497028
    15  H    0.146473
    16  H    0.144346
    17  H    0.144544
    18  H    0.131905
    19  H    0.132179
    20  H    0.121671
    21  H    0.139721
    22  H    0.144070
    23  H    0.141409
    24  H    0.141990
    25  H    0.146493
    26  H    0.097510
    27  H    0.125530
    28  H    0.129956
    29  H    0.144116
    30  H    0.195478
    31  H    0.194633
 Sum of Mulliken charges =  -0.00000

 Dipole moment (field-independent basis, Debye):
    X=             -4.5846    Y=              0.3560    Z=              0.2908  Tot=              4.6075
 Quadrupole moment (field-independent basis, Debye-Ang):
   XX=           -110.4259   YY=            -82.7314   ZZ=            -89.0212
   XY=              8.5057   XZ=              1.3017   YZ=             -0.9171

 Normal termination of Gaussian 16 at Thu Aug  7 22:41:04 2025.
