 Gaussian 16, Revision C.02,
 Gaussian 16:  ES64L-G16RevC.02  7-Dec-2021

 ----------------------------------------------------------
 # td=(50-50,nstates=3) b3lyp/6-31+g(d,p) geom=connectivity
 ----------------------------------------------------------

 -------------------
 Title Card Required
 -------------------
 Symbolic Z-matrix:
 Charge =  0 Multiplicity = 1

                         Standard orientation:
 ---------------------------------------------------------------------
 Center     Atomic      Atomic             Coordinates (Angstroms)
 Number     Number       Type             X           Y           Z
 ---------------------------------------------------------------------
      1          6           0        1.426058    1.925256    3.163333
      2          6           0        1.187816    1.464169    1.927852
      3          6           0        2.053090    0.566107    1.223505
      4          6           0        2.769879   -0.226671    0.626162
      5         14           0        3.965864   -1.382887   -0.186500
      6          6           0        4.512246   -2.660515    1.089404
      7          6           0        3.077092   -2.228473   -1.627484
      8          6           0        5.433972   -0.378998   -0.814494
      9          8           0       -0.008896    1.799354    1.301165
     10          6           0        0.033181    1.938095   -0.075560
     11          6           0       -0.627376    3.014257   -0.708241
     12          8           0       -0.890722    4.154888   -0.397373
     13          8           0       -1.035405    2.531224   -2.029730
     14          7           0       -0.457563    1.261474   -2.234526
     15          7           0       -0.353712    0.706523   -0.832506
     16          6           0       -1.570213   -0.048981   -0.454946
     17          6           0       -1.617037   -1.409036   -0.752831
     18          6           0       -2.756275   -2.145204   -0.431852
     19          6           0       -3.829194   -1.497179    0.184277
     20         17           0       -5.263389   -2.416093    0.595055
     21          6           0       -3.777546   -0.134843    0.484722
     22          6           0       -2.634545    0.598185    0.164922
     23          1           0        0.726013    2.606428    3.633198
     24          1           0        2.312643    1.618951    3.703161
     25          1           0        5.224528   -3.367525    0.647935
     26          1           0        5.000951   -2.179592    1.943418
     27          1           0        3.659424   -3.232463    1.470231
     28          1           0        3.749051   -2.932443   -2.132201
     29          1           0        2.741964   -1.503866   -2.378677
     30          1           0        2.206020   -2.796815   -1.281956
     31          1           0        5.117583    0.379360   -1.538504
     32          1           0        5.938490    0.137039    0.009216
     33          1           0        6.167092   -1.030553   -1.304576
     34          1           0       -0.778024   -1.898940   -1.240044
     35          1           0       -2.812104   -3.204196   -0.656133
     36          1           0       -4.618271    0.348900    0.968484
     37          1           0       -2.577312    1.652459    0.407778
     38          1           0        0.433638    0.048245   -0.855183
     39          1           0        0.536050    1.472298   -2.416956
 ---------------------------------------------------------------------

 SCF Done:  E(RB3LYP) =  -1666.55994884     A.U. after   17 cycles

 Excitation energies and oscillator strengths:

 Excited State   1:      Triplet-A      2.8140 eV  440.60 nm  f=0.0000  <S**2>=2.000
      86 -> 91        -0.15348
      87 -> 90         0.18813
      87 -> 91         0.47307
      88 -> 89         0.21538
      88 -> 90         0.16229
      88 -> 91         0.34174
 This state for optimization and/or second-order correction.
 Total Energy, E(TD-HF/TD-DFT) =  -1666.45653759
 Copying the excited state density for this state as the 1-particle RhoCI density.

 Excited State   2:      Triplet-A      2.9726 eV  417.09 nm  f=0.0000  <S**2>=2.000
      87 -> 91        -0.15362
      88 -> 89         0.65894
      88 -> 91        -0.12280

 Excited State   3:      Singlet-A      3.0487 eV  406.68 nm  f=0.0013  <S**2>=0.000
      88 -> 89         0.70151

 Excited State   4:      Singlet-A      3.3826 eV  366.53 nm  f=0.0044  <S**2>=0.000
      88 -> 90         0.59209
      88 -> 91         0.37951

 Excited State   5:      Triplet-A      3.3968 eV  365.01 nm  f=0.0000  <S**2>=2.000
      87 -> 91        -0.13163
      88 -> 90         0.67755

 Excited State   6:      Singlet-A      3.4525 eV  359.12 nm  f=0.0034  <S**2>=0.000
      88 -> 90        -0.38198
      88 -> 91         0.59243

 The electronic state is 1-A.
 Alpha  occ. eigenvalues -- -101.57654 -66.15971 -19.21870 -19.20713 -19.12366
 Alpha  occ. eigenvalues --  -14.50577 -14.46740 -10.29927 -10.28887 -10.28201
 Alpha  occ. eigenvalues --  -10.27677 -10.25208 -10.24773 -10.24175 -10.23969
 Alpha  occ. eigenvalues --  -10.23820 -10.22094 -10.20148 -10.19840 -10.19268
 Alpha  occ. eigenvalues --  -10.18489 -10.18395  -9.49161  -7.25577  -7.24595
 Alpha  occ. eigenvalues --   -7.24555  -5.30246  -3.66255  -3.66084  -3.66056
 Alpha  occ. eigenvalues --   -1.15242  -1.08992  -1.03850  -1.00527  -0.92381
 Alpha  occ. eigenvalues --   -0.87326  -0.83369  -0.81343  -0.79950  -0.77539
 Alpha  occ. eigenvalues --   -0.75472  -0.73416  -0.72078  -0.70394  -0.69882
 Alpha  occ. eigenvalues --   -0.66811  -0.64576  -0.63352  -0.61906  -0.60661
 Alpha  occ. eigenvalues --   -0.57598  -0.55429  -0.53859  -0.52474  -0.51532
 Alpha  occ. eigenvalues --   -0.49960  -0.48527  -0.47625  -0.47051  -0.45569
 Alpha  occ. eigenvalues --   -0.44393  -0.43702  -0.43427  -0.42833  -0.42755
 Alpha  occ. eigenvalues --   -0.42487  -0.41648  -0.41626  -0.41328  -0.41199
 Alpha  occ. eigenvalues --   -0.40598  -0.40338  -0.39887  -0.38601  -0.37286
 Alpha  occ. eigenvalues --   -0.36452  -0.34939  -0.33804  -0.33749  -0.33472
 Alpha  occ. eigenvalues --   -0.31204  -0.30532  -0.29906  -0.29843  -0.28143
 Alpha  occ. eigenvalues --   -0.26573  -0.24885  -0.20721
 Alpha virt. eigenvalues --   -0.06596  -0.05609  -0.05227  -0.03725  -0.02223
 Alpha virt. eigenvalues --   -0.01147  -0.00478   0.00036   0.00470   0.00721
 Alpha virt. eigenvalues --    0.01842   0.02078   0.02469   0.03016   0.03108

 Mulliken charges:
               1
     1  C   -0.440493
     2  C    0.286629
     3  C    0.663582
     4  C   -1.157312
     5  Si   1.278028
     6  C   -0.653114
     7  C   -0.721030
     8  C   -0.650544
     9  O   -0.251491
    10  C   -0.037970
    11  C    0.019156
    12  O   -0.465934
    13  O   -0.124474
    14  N   -0.061386
    15  N   -0.064047
    16  C   -1.175907
    17  C    0.472188
    18  C   -0.489908
    19  C    0.243692
    20  Cl   0.278603
    21  C   -0.508418
    22  C    0.429659
    23  H    0.159289
    24  H    0.152074
    25  H    0.164531
    26  H    0.170744
    27  H    0.167466
    28  H    0.173953
    29  H    0.156681
    30  H    0.159826
    31  H    0.168550
    32  H    0.171974
    33  H    0.164104
    34  H    0.130652
    35  H    0.155497
    36  H    0.161105
    37  H    0.168218
    38  H    0.373234
    39  H    0.332591
 Sum of Mulliken charges =  -0.00000

 Dipole moment (field-independent basis, Debye):
    X=              3.4550    Y=             -7.4431    Z=             -0.0634  Tot=              8.2061
 Quadrupole moment (field-independent basis, Debye-Ang):
   XX=           -135.3674   YY=           -169.5310   ZZ=           -143.8723
   XY=             -0.2020   XZ=             -5.9891   YZ=              9.0287

 Normal termination of Gaussian 16 at Sun Sep 21 21:46:51 2025.
