 Gaussian 16, Revision C.02,
 Gaussian 16:  ES64L-G16RevC.02  7-Dec-2021

 ----------------------------------------------------------
 # td=(50-50,nstates=3) b3lyp/6-31+g(d,p) geom=connectivity
 ----------------------------------------------------------

 -------------------
 Title Card Required
 -------------------
 Symbolic Z-matrix:
 Charge =  0 Multiplicity = 1

                         Standard orientation:
 ---------------------------------------------------------------------
 Center     Atomic      Atomic             Coordinates (Angstroms)
 Number     Number       Type             X           Y           Z
 ---------------------------------------------------------------------
      1          6           0       -4.571072    0.467499   -1.485736
      2          7           0       -3.683713   -0.155674   -0.511184
      3          6           0       -4.148174   -1.243302    0.244842
      4          6           0       -3.335043   -1.993778    0.999182
      5          6           0       -1.852360   -1.736743    1.126301
      6          6           0       -1.418717   -0.604490    0.194804
      7          6           0       -0.002389   -0.250394    0.103877
      8          6           0        0.505697    1.041648    0.129323
      9          7           0       -0.428263    2.168457    0.375078
     10          8           0       -0.776750    2.364312    1.533057
     11          8           0       -0.770223    2.836793   -0.599847
     12          6           0        1.894384    1.393032   -0.015263
     13         17           0        2.367214    3.070654    0.051620
     14          6           0        2.862331    0.434066   -0.160970
     15          6           0        2.397041   -0.899143   -0.158201
     16          6           0        1.026370   -1.266153   -0.023605
     17          7           0        0.876908   -2.581033   -0.080345
     18          8           0        2.130009   -3.104490   -0.238467
     19          7           0        3.099751   -2.034021   -0.293009
     20          8           0        4.288508   -2.301505   -0.434625
     21          6           0       -2.335699    0.086977   -0.540547
     22          1           0       -5.545807    0.655244   -1.026923
     23          1           0       -4.151806    1.425982   -1.797564
     24          1           0       -4.714040   -0.164060   -2.373258
     25          1           0       -5.213265   -1.431044    0.168185
     26          1           0       -3.760877   -2.823393    1.554154
     27          1           0       -1.292916   -2.656025    0.918033
     28          1           0       -1.604120   -1.470961    2.167194
     29          1           0        3.913237    0.672491   -0.260978
     30          1           0       -2.032390    0.870334   -1.225147
 ---------------------------------------------------------------------

 SCF Done:  E(RB3LYP) =  -1442.54362833     A.U. after   20 cycles

 Excitation energies and oscillator strengths:

 Excited State   1:      Triplet-A      1.1242 eV 1102.85 nm  f=0.0000  <S**2>=2.000
      78 -> 80        -0.47800
      78 -> 82         0.10056
      79 -> 80         0.52272
      78 <- 80        -0.17194
 This state for optimization and/or second-order correction.
 Total Energy, E(TD-HF/TD-DFT) =  -1442.50231412
 Copying the excited state density for this state as the 1-particle RhoCI density.

 Excited State   2:      Triplet-A      1.6149 eV  767.73 nm  f=0.0000  <S**2>=2.000
      77 -> 80        -0.10244
      78 -> 80         0.48356
      79 -> 80         0.46175
      79 -> 81        -0.10556
      79 -> 82         0.11715
      78 <- 80         0.10444

 Excited State   3:      Singlet-A      1.8693 eV  663.25 nm  f=0.1016  <S**2>=0.000
      79 -> 80         0.66855
      79 -> 81        -0.22484

 Excited State   4:      Triplet-A      1.9260 eV  643.75 nm  f=0.0000  <S**2>=2.000
      78 -> 80         0.10380
      79 -> 81         0.68736

 Excited State   5:      Singlet-A      2.0014 eV  619.48 nm  f=0.0247  <S**2>=0.000
      79 -> 80         0.22510
      79 -> 81         0.66671

 Excited State   6:      Singlet-A      3.0539 eV  405.98 nm  f=0.0306  <S**2>=0.000
      78 -> 80         0.54982
      78 -> 81        -0.42710

 The electronic state is 1-A.
 Alpha  occ. eigenvalues -- -101.58684 -19.30118 -19.22288 -19.22086 -19.20885
 Alpha  occ. eigenvalues --  -14.60453 -14.56600 -14.43243 -14.40482 -10.30700
 Alpha  occ. eigenvalues --  -10.29274 -10.28778 -10.28238 -10.27074 -10.25752
 Alpha  occ. eigenvalues --  -10.25206 -10.24984 -10.24284 -10.22480 -10.21325
 Alpha  occ. eigenvalues --  -10.20716  -9.50142  -7.26596  -7.25563  -7.25521
 Alpha  occ. eigenvalues --   -1.26064  -1.24000  -1.14077  -1.08891  -0.99740
 Alpha  occ. eigenvalues --   -0.95592  -0.91480  -0.90788  -0.87098  -0.83283
 Alpha  occ. eigenvalues --   -0.80861  -0.79599  -0.76392  -0.73933  -0.69559
 Alpha  occ. eigenvalues --   -0.66777  -0.66502  -0.65974  -0.62403  -0.59366
 Alpha  occ. eigenvalues --   -0.58338  -0.55901  -0.55740  -0.54823  -0.54279
 Alpha  occ. eigenvalues --   -0.53668  -0.51955  -0.51432  -0.50557  -0.48546
 Alpha  occ. eigenvalues --   -0.47902  -0.46868  -0.46094  -0.45679  -0.44748
 Alpha  occ. eigenvalues --   -0.44249  -0.43680  -0.43307  -0.42635  -0.39557
 Alpha  occ. eigenvalues --   -0.38567  -0.37907  -0.37125  -0.36878  -0.35121
 Alpha  occ. eigenvalues --   -0.34821  -0.34008  -0.33634  -0.31995  -0.31576
 Alpha  occ. eigenvalues --   -0.30518  -0.28809  -0.24668  -0.20585
 Alpha virt. eigenvalues --   -0.12142  -0.10599  -0.05092  -0.03499  -0.01892
 Alpha virt. eigenvalues --   -0.01239  -0.00986   0.00005   0.00679   0.01501
 Alpha virt. eigenvalues --    0.01778   0.02075   0.02924   0.03359   0.04037

 Mulliken charges:
               1
     1  C   -0.214650
     2  N   -0.018465
     3  C    0.072242
     4  C   -0.184669
     5  C   -0.585789
     6  C    0.859784
     7  C    1.092568
     8  C   -0.659279
     9  N   -0.540188
    10  O    0.085151
    11  O    0.074365
    12  C   -0.602108
    13  Cl   0.315420
    14  C    0.800473
    15  C   -0.862511
    16  C    0.101192
    17  N   -0.542101
    18  O    0.407086
    19  N   -0.549185
    20  O    0.052012
    21  C   -0.506838
    22  H    0.156163
    23  H    0.157296
    24  H    0.163495
    25  H    0.130362
    26  H    0.131077
    27  H    0.186163
    28  H    0.160872
    29  H    0.178220
    30  H    0.141843
 Sum of Mulliken charges =  -0.00000

 Dipole moment (field-independent basis, Debye):
    X=             -4.2654    Y=              0.0204    Z=             -1.1526  Tot=              4.4184
 Quadrupole moment (field-independent basis, Debye-Ang):
   XX=           -115.4039   YY=           -144.6575   ZZ=           -127.5831
   XY=             13.2711   XZ=              7.1668   YZ=             -6.0712

 Normal termination of Gaussian 16 at Sun Sep 21 22:01:27 2025.
