 Gaussian 16, Revision C.02,
 Gaussian 16:  ES64L-G16RevC.02  7-Dec-2021

 ----------------------------------------------------------
 # td=(50-50,nstates=3) b3lyp/6-31+g(d,p) geom=connectivity
 ----------------------------------------------------------

 -------------------
 Title Card Required
 -------------------
 Symbolic Z-matrix:
 Charge =  0 Multiplicity = 1

                         Standard orientation:
 ---------------------------------------------------------------------
 Center     Atomic      Atomic             Coordinates (Angstroms)
 Number     Number       Type             X           Y           Z
 ---------------------------------------------------------------------
      1          6           0        3.294855    3.188990   -0.819218
      2          6           0        2.424317    1.974310   -0.779788
      3          6           0        1.340071    1.835835    0.002818
      4          6           0        0.437374    0.676480    0.017660
      5          6           0       -0.910697    0.910369    0.119033
      6          6           0       -1.901555   -0.117055   -0.042326
      7          6           0       -3.261650    0.158799    0.077603
      8          6           0       -4.254703   -0.843290   -0.135434
      9          7           0       -5.059059   -1.667856   -0.311195
     10          6           0       -3.735346    1.460358    0.420580
     11          7           0       -4.108680    2.528284    0.699527
     12          6           0       -1.438742   -1.443839   -0.388547
     13          6           0       -0.113856   -1.718496   -0.433163
     14          6           0        0.889291   -0.718647   -0.102434
     15          6           0        2.174886   -1.163623    0.189693
     16          6           0        3.235735   -0.398111    0.768739
     17          7           0        4.155185    0.107096    1.275148
     18          6           0        2.521840   -2.544482    0.023383
     19          7           0        2.818878   -3.661276   -0.121440
     20          1           0        4.310030    2.932075   -0.489809
     21          1           0        3.381900    3.576236   -1.841600
     22          1           0        2.914644    3.985178   -0.173310
     23          1           0        2.715602    1.157592   -1.439524
     24          1           0        1.022786    2.681150    0.611908
     25          1           0       -1.251351    1.931071    0.262891
     26          1           0       -2.165587   -2.224446   -0.586237
     27          1           0        0.216795   -2.728195   -0.650194
 ---------------------------------------------------------------------

 SCF Done:  E(RB3LYP) =  -795.326379302     A.U. after   17 cycles

 Excitation energies and oscillator strengths:

 Excited State   1:      Triplet-A      0.6247 eV 1984.83 nm  f=0.0000  <S**2>=2.000
      62 -> 64        -0.24347
      63 -> 64         0.74559
      62 <- 64        -0.13820
      63 <- 64         0.33152
 This state for optimization and/or second-order correction.
 Total Energy, E(TD-HF/TD-DFT) =  -795.303423469
 Copying the excited state density for this state as the 1-particle RhoCI density.

 Excited State   2:      Triplet-A      1.8257 eV  679.11 nm  f=0.0000  <S**2>=2.000
      62 -> 64         0.66035
      63 -> 64         0.19571

 Excited State   3:      Singlet-A      2.1379 eV  579.95 nm  f=0.1109  <S**2>=0.000
      62 -> 64         0.46954
      63 -> 64         0.52766

 Excited State   4:      Singlet-A      2.9429 eV  421.30 nm  f=0.7758  <S**2>=0.000
      62 -> 64         0.52697
      63 -> 64        -0.48040
      63 <- 64         0.13379

 Excited State   5:      Triplet-A      2.9530 eV  419.86 nm  f=0.0000  <S**2>=2.000
      60 -> 64        -0.37140
      61 -> 64         0.54644
      63 -> 66        -0.17102

 Excited State   6:      Singlet-A      3.6412 eV  340.51 nm  f=0.0115  <S**2>=0.000
      60 -> 64         0.21701
      61 -> 64         0.66460

 The electronic state is 1-A.
 Alpha  occ. eigenvalues --  -14.38882 -14.38549 -14.38523 -14.38462 -10.32061
 Alpha  occ. eigenvalues --  -10.31266 -10.30167 -10.29288 -10.28036 -10.27951
 Alpha  occ. eigenvalues --  -10.27949 -10.27674 -10.27630 -10.26590 -10.26470
 Alpha  occ. eigenvalues --  -10.25894 -10.24457 -10.23736 -10.21632  -0.96689
 Alpha  occ. eigenvalues --   -0.96087  -0.94675  -0.94440  -0.93624  -0.89243
 Alpha  occ. eigenvalues --   -0.85929  -0.84040  -0.81361  -0.77025  -0.73326
 Alpha  occ. eigenvalues --   -0.68854  -0.67872  -0.63986  -0.61523  -0.59995
 Alpha  occ. eigenvalues --   -0.58251  -0.57020  -0.51385  -0.51086  -0.49575
 Alpha  occ. eigenvalues --   -0.47988  -0.46126  -0.45527  -0.45269  -0.44648
 Alpha  occ. eigenvalues --   -0.42859  -0.41401  -0.40986  -0.40809  -0.40800
 Alpha  occ. eigenvalues --   -0.40382  -0.40128  -0.39324  -0.38711  -0.38316
 Alpha  occ. eigenvalues --   -0.38198  -0.38072  -0.37280  -0.36992  -0.34886
 Alpha  occ. eigenvalues --   -0.34153  -0.29080  -0.26554
 Alpha virt. eigenvalues --   -0.17962  -0.08610  -0.07261  -0.04590  -0.03804
 Alpha virt. eigenvalues --   -0.02066  -0.01641  -0.00655  -0.00505   0.00026
 Alpha virt. eigenvalues --    0.00521   0.00776   0.00982   0.01576   0.01986

 Mulliken charges:
               1
     1  C   -0.755509
     2  C    0.172367
     3  C   -0.342049
     4  C   -0.040162
     5  C   -0.243026
     6  C    1.875165
     7  C    0.670183
     8  C   -0.235893
     9  N   -0.462862
    10  C   -0.426409
    11  N   -0.462020
    12  C   -0.560973
    13  C   -0.350933
    14  C    0.284900
    15  C    1.128439
    16  C   -0.395533
    17  N   -0.453868
    18  C   -0.234014
    19  N   -0.453561
    20  H    0.184668
    21  H    0.166261
    22  H    0.156745
    23  H    0.133387
    24  H    0.136491
    25  H    0.163544
    26  H    0.173500
    27  H    0.171163
 Sum of Mulliken charges =  -0.00000

 Dipole moment (field-independent basis, Debye):
    X=              2.1475    Y=              2.3048    Z=             -2.0707  Tot=              3.7698
 Quadrupole moment (field-independent basis, Debye-Ang):
   XX=           -152.2058   YY=           -123.0325   ZZ=           -111.0907
   XY=             14.4926   XZ=             -6.7318   YZ=             -3.7549

 Normal termination of Gaussian 16 at Thu Aug  7 22:33:19 2025.
