 Gaussian 16, Revision C.02,
 Gaussian 16:  ES64L-G16RevC.02  7-Dec-2021

 ----------------------------------------------------------
 # td=(50-50,nstates=3) b3lyp/6-31+g(d,p) geom=connectivity
 ----------------------------------------------------------

 -------------------
 Title Card Required
 -------------------
 Symbolic Z-matrix:
 Charge =  0 Multiplicity = 1

                         Standard orientation:
 ---------------------------------------------------------------------
 Center     Atomic      Atomic             Coordinates (Angstroms)
 Number     Number       Type             X           Y           Z
 ---------------------------------------------------------------------
      1          6           0        3.243932    0.938695    1.848366
      2          6           0        3.148851    0.054415    0.839264
      3          6           0        4.333841   -0.608225    0.352549
      4          7           0        5.290649   -1.128829   -0.055458
      5          6           0        1.876349   -0.314703    0.185933
      6          6           0        0.919601    0.384170   -0.450377
      7          6           0        0.813516    1.852425   -0.815755
      8          6           0        0.243348    2.725022    0.323698
      9          6           0        2.120947    2.446393   -1.372783
     10          6           0       -0.121104   -0.620575   -0.923761
     11          6           0       -1.548085   -0.387269   -0.449964
     12          6           0       -1.872536   -0.429896    0.914454
     13          6           0       -3.179469   -0.209231    1.341948
     14          6           0       -4.208919    0.064364    0.425660
     15          6           0       -5.627547    0.279971    0.898706
     16          6           0       -3.878302    0.108163   -0.933329
     17          6           0       -2.567773   -0.117331   -1.366372
     18          6           0        0.458233   -1.959339   -0.451277
     19          8           0        0.027851   -3.071777   -0.581801
     20          8           0        1.644090   -1.701970    0.206356
     21          1           0        2.358330    1.416191    2.250507
     22          1           0        4.204043    1.189843    2.285857
     23          1           0        0.074981    1.889728   -1.628053
     24          1           0        0.041676    3.736623   -0.045458
     25          1           0       -0.690305    2.313690    0.716432
     26          1           0        0.956384    2.809769    1.150148
     27          1           0        1.941365    3.463821   -1.736272
     28          1           0        2.505937    1.851318   -2.206885
     29          1           0        2.901660    2.500998   -0.609007
     30          1           0       -0.128816   -0.649223   -2.022487
     31          1           0       -1.100264   -0.642722    1.649687
     32          1           0       -3.406466   -0.253857    2.404462
     33          1           0       -5.666980    0.986499    1.734900
     34          1           0       -6.260719    0.669917    0.096763
     35          1           0       -6.073516   -0.659706    1.246737
     36          1           0       -4.652750    0.315297   -1.667462
     37          1           0       -2.343938   -0.088712   -2.429850
 ---------------------------------------------------------------------

 SCF Done:  E(RB3LYP) =  -863.259863733     A.U. after   17 cycles

 Excitation energies and oscillator strengths:

 Excited State   1:      Triplet-A      2.8792 eV  430.63 nm  f=0.0000  <S**2>=2.000
      67 -> 72        -0.32323
      68 -> 72        -0.11882
      70 -> 72         0.37224
      71 -> 72         0.43573
 This state for optimization and/or second-order correction.
 Total Energy, E(TD-HF/TD-DFT) =  -863.154056272
 Copying the excited state density for this state as the 1-particle RhoCI density.

 Excited State   2:      Triplet-A      3.5566 eV  348.60 nm  f=0.0000  <S**2>=2.000
      67 -> 72         0.48603
      68 -> 72         0.21502
      70 -> 72         0.13101
      70 -> 73        -0.21509
      71 -> 72         0.15488
      71 -> 73        -0.23499

 Excited State   3:      Triplet-A      3.6396 eV  340.65 nm  f=0.0000  <S**2>=2.000
      69 -> 74        -0.32374
      69 -> 75        -0.24998
      70 -> 74         0.22480
      70 -> 75        -0.22875
      71 -> 74        -0.19457
      71 -> 75         0.37925

 Excited State   4:      Singlet-A      3.9438 eV  314.38 nm  f=0.0714  <S**2>=0.000
      70 -> 72         0.24172
      71 -> 72         0.65162

 Excited State   5:      Singlet-A      4.2119 eV  294.37 nm  f=0.0042  <S**2>=0.000
      70 -> 72         0.65086
      71 -> 72        -0.24863

 Excited State   6:      Singlet-A      4.5952 eV  269.81 nm  f=0.0003  <S**2>=0.000
      69 -> 72         0.70102

 The electronic state is 1-A.
 Alpha  occ. eigenvalues --  -19.22554 -19.16415 -14.35750 -10.33778 -10.28404
 Alpha  occ. eigenvalues --  -10.27406 -10.24853 -10.24461 -10.23987 -10.22947
 Alpha  occ. eigenvalues --  -10.22672 -10.22343 -10.21834 -10.21121 -10.21087
 Alpha  occ. eigenvalues --  -10.20775 -10.20752 -10.19912 -10.19823 -10.19594
 Alpha  occ. eigenvalues --   -1.13369  -1.05385  -0.92456  -0.88499  -0.86367
 Alpha  occ. eigenvalues --   -0.84505  -0.81016  -0.77821  -0.76398  -0.74463
 Alpha  occ. eigenvalues --   -0.70494  -0.70269  -0.67172  -0.64174  -0.63229
 Alpha  occ. eigenvalues --   -0.61952  -0.59285  -0.57050  -0.54322  -0.52273
 Alpha  occ. eigenvalues --   -0.50850  -0.49274  -0.48520  -0.47478  -0.46993
 Alpha  occ. eigenvalues --   -0.46613  -0.45480  -0.44513  -0.43694  -0.43534
 Alpha  occ. eigenvalues --   -0.43267  -0.41849  -0.41665  -0.40966  -0.40759
 Alpha  occ. eigenvalues --   -0.39488  -0.39392  -0.37862  -0.37608  -0.37168
 Alpha  occ. eigenvalues --   -0.36853  -0.36179  -0.35884  -0.35539  -0.35450
 Alpha  occ. eigenvalues --   -0.34670  -0.30626  -0.29469  -0.27109  -0.26114
 Alpha  occ. eigenvalues --   -0.25265
 Alpha virt. eigenvalues --   -0.08431  -0.03870  -0.03188  -0.03098  -0.01314
 Alpha virt. eigenvalues --   -0.00218  -0.00033   0.00265   0.01141   0.01378
 Alpha virt. eigenvalues --    0.01808   0.02598   0.02942   0.03361   0.03446

 Mulliken charges:
               1
     1  C   -0.524532
     2  C   -0.070527
     3  C    0.081000
     4  N   -0.483699
     5  C    0.831330
     6  C   -0.591176
     7  C    0.389607
     8  C   -0.592184
     9  C   -0.580605
    10  C    0.260590
    11  C    0.101097
    12  C    0.169901
    13  C   -0.155272
    14  C    0.358236
    15  C   -0.637943
    16  C   -0.446516
    17  C   -0.131369
    18  C    0.097892
    19  O   -0.392084
    20  O   -0.181272
    21  H    0.154092
    22  H    0.169733
    23  H    0.134959
    24  H    0.149530
    25  H    0.165806
    26  H    0.131199
    27  H    0.147369
    28  H    0.153601
    29  H    0.158030
    30  H    0.170319
    31  H    0.118710
    32  H    0.124524
    33  H    0.161136
    34  H    0.151272
    35  H    0.171148
    36  H    0.122817
    37  H    0.113284
 Sum of Mulliken charges =  -0.00000

 Dipole moment (field-independent basis, Debye):
    X=             -4.2625    Y=              6.4609    Z=              1.1671  Tot=              7.8278
 Quadrupole moment (field-independent basis, Debye-Ang):
   XX=           -131.1963   YY=           -134.4489   ZZ=           -108.8466
   XY=             11.3997   XZ=              5.0793   YZ=             -0.5394

 Normal termination of Gaussian 16 at Thu Aug  7 22:38:44 2025.
