 Gaussian 16, Revision C.02,
 Gaussian 16:  ES64L-G16RevC.02  7-Dec-2021

 ----------------------------------------------------------
 # td=(50-50,nstates=3) b3lyp/6-31+g(d,p) geom=connectivity
 ----------------------------------------------------------

 -------------------
 Title Card Required
 -------------------
 Symbolic Z-matrix:
 Charge =  0 Multiplicity = 1

                         Standard orientation:
 ---------------------------------------------------------------------
 Center     Atomic      Atomic             Coordinates (Angstroms)
 Number     Number       Type             X           Y           Z
 ---------------------------------------------------------------------
      1          6           0       -4.671176   -2.410495   -0.446181
      2          6           0       -4.244816   -0.998570    0.006165
      3          6           0       -4.843061    0.018320   -0.996925
      4          6           0       -4.837010   -0.750470    1.417024
      5          6           0       -2.711298   -0.864744    0.043691
      6          6           0       -1.873215   -1.910157   -0.077458
      7          6           0       -0.394177   -1.781877   -0.002434
      8          6           0        0.170575   -0.382343   -0.044860
      9          6           0        1.668207   -0.412335   -0.034347
     10          6           0        2.371316   -0.119426    1.144222
     11          6           0        3.761883   -0.230075    1.204821
     12          6           0        4.460670   -0.645599    0.071815
     13         17           0        6.212308   -0.784198    0.134534
     14          6           0        3.787920   -0.960327   -1.109319
     15          6           0        2.397110   -0.853172   -1.149488
     16          6           0       -0.636639    0.713054   -0.026351
     17          6           0       -0.213377    2.194244   -0.226231
     18          6           0       -0.154903    2.930404    1.135736
     19          6           0        1.155213    2.361098   -0.925801
     20          6           0       -1.239525    2.904501   -1.154037
     21          6           0       -2.095016    0.475955    0.294031
     22          8           0       -2.771407    1.384632    0.780530
     23          1           0       -4.357909   -3.185522    0.262041
     24          1           0       -5.763373   -2.453244   -0.509091
     25          1           0       -4.271352   -2.662824   -1.435001
     26          1           0       -4.630416    1.046709   -0.701025
     27          1           0       -5.930961   -0.105609   -1.042668
     28          1           0       -4.445518   -0.145875   -2.005445
     29          1           0       -5.926417   -0.872109    1.385975
     30          1           0       -4.438699   -1.474599    2.137152
     31          1           0       -4.607443    0.254891    1.771441
     32          1           0       -2.252859   -2.918934   -0.209239
     33          1           0       -0.029474   -2.287428    0.907746
     34          1           0        0.065220   -2.361018   -0.818631
     35          1           0        1.825611    0.204563    2.025389
     36          1           0        4.295109    0.003133    2.120015
     37          1           0        4.342961   -1.284392   -1.982960
     38          1           0        1.877059   -1.093524   -2.072775
     39          1           0        0.118169    3.980469    0.975593
     40          1           0       -1.118592    2.896151    1.645775
     41          1           0        0.605308    2.485804    1.787767
     42          1           0        1.292098    3.421700   -1.162450
     43          1           0        1.202524    1.804053   -1.867257
     44          1           0        1.999023    2.058288   -0.306322
     45          1           0       -2.230444    2.968298   -0.707786
     46          1           0       -0.890510    3.922576   -1.357429
     47          1           0       -1.319195    2.384833   -2.116574
 ---------------------------------------------------------------------

 SCF Done:  E(RB3LYP) =  -1312.65021839     A.U. after   17 cycles

 Excitation energies and oscillator strengths:

 Excited State   1:      Triplet-A      3.0120 eV  411.63 nm  f=0.0000  <S**2>=2.000
      85 -> 86         0.68399
 This state for optimization and/or second-order correction.
 Total Energy, E(TD-HF/TD-DFT) =  -1312.53952805
 Copying the excited state density for this state as the 1-particle RhoCI density.

 Excited State   2:      Triplet-A      3.2452 eV  382.06 nm  f=0.0000  <S**2>=2.000
      81 -> 86        -0.10284
      82 -> 86        -0.20931
      82 -> 90        -0.20699
      83 -> 86         0.44933
      84 -> 86         0.37549
      84 -> 87         0.11439
      84 -> 90         0.11810

 Excited State   3:      Triplet-A      3.4234 eV  362.17 nm  f=0.0000  <S**2>=2.000
      82 -> 86         0.41282
      83 -> 86         0.39541
      83 -> 87        -0.11395
      83 -> 90        -0.20768
      84 -> 86        -0.20975
      84 -> 87        -0.12502

 Excited State   4:      Singlet-A      3.4549 eV  358.87 nm  f=0.0006  <S**2>=0.000
      85 -> 86         0.69362

 Excited State   5:      Singlet-A      4.4393 eV  279.29 nm  f=0.1060  <S**2>=0.000
      83 -> 86        -0.10058
      84 -> 86         0.69232

 Excited State   6:      Singlet-A      4.8748 eV  254.34 nm  f=0.0305  <S**2>=0.000
      82 -> 86         0.52877
      83 -> 86        -0.17804
      84 -> 88         0.13880
      85 -> 87         0.34492
      85 -> 88        -0.10251
      85 -> 90         0.12916

 The electronic state is 1-A.
 Alpha  occ. eigenvalues -- -101.56252 -19.13763 -10.27894 -10.26915 -10.22940
 Alpha  occ. eigenvalues --  -10.22549 -10.22120 -10.22064 -10.21924 -10.21867
 Alpha  occ. eigenvalues --  -10.21802 -10.21464 -10.21326 -10.21180 -10.21119
 Alpha  occ. eigenvalues --  -10.20780 -10.18058 -10.17296 -10.17158 -10.16986
 Alpha  occ. eigenvalues --  -10.16950 -10.16817  -9.47761  -7.24167  -7.23196
 Alpha  occ. eigenvalues --   -7.23166  -1.03817  -0.90698  -0.87453  -0.84918
 Alpha  occ. eigenvalues --   -0.82983  -0.80900  -0.77526  -0.77293  -0.73717
 Alpha  occ. eigenvalues --   -0.72499  -0.68849  -0.68230  -0.68169  -0.67977
 Alpha  occ. eigenvalues --   -0.63833  -0.63629  -0.61260  -0.59117  -0.57355
 Alpha  occ. eigenvalues --   -0.53945  -0.52176  -0.49542  -0.49115  -0.48826
 Alpha  occ. eigenvalues --   -0.47784  -0.46837  -0.45710  -0.45568  -0.44713
 Alpha  occ. eigenvalues --   -0.43741  -0.43586  -0.43496  -0.42323  -0.42123
 Alpha  occ. eigenvalues --   -0.41332  -0.41114  -0.40778  -0.39457  -0.38762
 Alpha  occ. eigenvalues --   -0.38447  -0.37875  -0.37634  -0.37159  -0.37073
 Alpha  occ. eigenvalues --   -0.36210  -0.35638  -0.34616  -0.34017  -0.33718
 Alpha  occ. eigenvalues --   -0.33439  -0.33088  -0.32535  -0.32432  -0.31859
 Alpha  occ. eigenvalues --   -0.28067  -0.27009  -0.26641  -0.25316  -0.24506
 Alpha virt. eigenvalues --   -0.06643  -0.04002  -0.03566  -0.01245  -0.00992
 Alpha virt. eigenvalues --    0.00163   0.00735   0.01090   0.01201   0.01790
 Alpha virt. eigenvalues --    0.02490   0.02891   0.03110   0.03847   0.04015

 Mulliken charges:
               1
     1  C   -0.430116
     2  C    0.280478
     3  C   -0.536402
     4  C   -0.539504
     5  C    0.393688
     6  C    0.122815
     7  C   -1.195497
     8  C    0.419891
     9  C   -0.445924
    10  C   -0.342730
    11  C   -0.075953
    12  C    0.022374
    13  Cl   0.223219
    14  C   -0.342869
    15  C    0.232531
    16  C    0.362907
    17  C    0.241424
    18  C   -0.579374
    19  C   -0.413664
    20  C   -0.522721
    21  C   -0.210297
    22  O   -0.426070
    23  H    0.142925
    24  H    0.150072
    25  H    0.150767
    26  H    0.176311
    27  H    0.140291
    28  H    0.140967
    29  H    0.139377
    30  H    0.138478
    31  H    0.185888
    32  H    0.131741
    33  H    0.182074
    34  H    0.168190
    35  H    0.129890
    36  H    0.147202
    37  H    0.145958
    38  H    0.126872
    39  H    0.141005
    40  H    0.182549
    41  H    0.130647
    42  H    0.140469
    43  H    0.147575
    44  H    0.160941
    45  H    0.179666
    46  H    0.139641
    47  H    0.142299
 Sum of Mulliken charges =  -0.00000

 Dipole moment (field-independent basis, Debye):
    X=              0.2779    Y=             -2.4319    Z=             -0.9397  Tot=              2.6219
 Quadrupole moment (field-independent basis, Debye-Ang):
   XX=           -157.5557   YY=           -142.3335   ZZ=           -139.5417
   XY=              7.0468   XZ=              2.6838   YZ=              0.7017

 Normal termination of Gaussian 16 at Sun Sep 21 22:21:00 2025.
