 Gaussian 16, Revision C.02,
 Gaussian 16:  ES64L-G16RevC.02  7-Dec-2021

 ----------------------------------------------------------
 # td=(50-50,nstates=3) b3lyp/6-31+g(d,p) geom=connectivity
 ----------------------------------------------------------

 -------------------
 Title Card Required
 -------------------
 Symbolic Z-matrix:
 Charge =  0 Multiplicity = 1

                         Standard orientation:
 ---------------------------------------------------------------------
 Center     Atomic      Atomic             Coordinates (Angstroms)
 Number     Number       Type             X           Y           Z
 ---------------------------------------------------------------------
      1          6           0        5.528236   -0.459292    1.395895
      2          6           0        4.817076   -0.993642    0.137439
      3          6           0        5.490313   -0.359373   -1.105013
      4          6           0        4.999818   -2.530902    0.093289
      5          6           0        3.315648   -0.657226    0.126635
      6          6           0        2.686434    0.058627    1.156761
      7          6           0        1.327078    0.366749    1.107995
      8          6           0        0.537869   -0.042185    0.024157
      9          6           0       -0.924482    0.217808    0.008187
     10          6           0       -1.782275   -0.847334   -0.024720
     11          6           0       -3.213081   -0.707498    0.069272
     12          6           0       -4.053912   -1.815010    0.006329
     13          6           0       -5.469622   -1.693393    0.141229
     14          7           0       -6.624398   -1.585010    0.252179
     15          6           0       -3.548582   -3.133689   -0.200944
     16          7           0       -3.128057   -4.206850   -0.371099
     17          6           0       -3.742757    0.621328    0.277288
     18          6           0       -2.917865    1.695332    0.292363
     19          6           0       -1.487301    1.571214    0.068583
     20          6           0       -0.754522    2.733977   -0.151338
     21          6           0        0.604660    2.816889   -0.587635
     22          7           0        1.679133    3.023044   -0.988187
     23          6           0       -1.377928    4.019182   -0.036190
     24          7           0       -1.873580    5.068271    0.065552
     25          6           0        1.149754   -0.779893   -1.002083
     26          6           0        2.509928   -1.068983   -0.950927
     27          1           0        5.118793   -0.894406    2.314098
     28          1           0        6.590052   -0.722541    1.353760
     29          1           0        5.463056    0.631419    1.470371
     30          1           0        5.066640   -0.741342   -2.038758
     31          1           0        6.562266   -0.586888   -1.108294
     32          1           0        5.371213    0.728984   -1.103616
     33          1           0        6.066189   -2.783109    0.095725
     34          1           0        4.535853   -3.007584    0.963518
     35          1           0        4.557051   -2.970268   -0.805776
     36          1           0        3.254767    0.392235    2.016563
     37          1           0        0.877952    0.919974    1.928521
     38          1           0       -1.365860   -1.848143   -0.073916
     39          1           0       -4.812044    0.752019    0.405259
     40          1           0       -3.334958    2.687826    0.423081
     41          1           0        0.561793   -1.106013   -1.855380
     42          1           0        2.948602   -1.624474   -1.773696
 ---------------------------------------------------------------------

 SCF Done:  E(RB3LYP) =  -1066.93867819     A.U. after   20 cycles

 Excitation energies and oscillator strengths:

 Excited State   1:      Triplet-A      0.6272 eV 1976.64 nm  f=0.0000  <S**2>=2.000
      86 -> 89         0.10455
      87 -> 89        -0.48990
      88 -> 89         0.60961
      87 <- 89        -0.24854
      88 <- 89         0.26447
 This state for optimization and/or second-order correction.
 Total Energy, E(TD-HF/TD-DFT) =  -1066.91562724
 Copying the excited state density for this state as the 1-particle RhoCI density.

 Excited State   2:      Triplet-A      1.7426 eV  711.48 nm  f=0.0000  <S**2>=2.000
      85 -> 89        -0.12622
      87 -> 89         0.53323
      88 -> 89         0.42931

 Excited State   3:      Singlet-A      1.8577 eV  667.39 nm  f=0.0574  <S**2>=0.000
      87 -> 89         0.37883
      88 -> 89         0.59502

 Excited State   4:      Triplet-A      2.1682 eV  571.84 nm  f=0.0000  <S**2>=2.000
      86 -> 89         0.69228
      87 -> 89         0.13748

 Excited State   5:      Singlet-A      2.2002 eV  563.50 nm  f=0.0052  <S**2>=0.000
      86 -> 89         0.68945
      87 -> 89         0.14668

 Excited State   6:      Singlet-A      2.9253 eV  423.83 nm  f=0.8975  <S**2>=0.000
      86 -> 89        -0.15131
      87 -> 89         0.58406
      88 -> 89        -0.38873
      87 <- 89        -0.11536
      88 <- 89         0.11633

 The electronic state is 1-A.
 Alpha  occ. eigenvalues --  -14.38672 -14.38454 -14.38433 -14.38125 -10.31776
 Alpha  occ. eigenvalues --  -10.31238 -10.29688 -10.29181 -10.27811 -10.27600
 Alpha  occ. eigenvalues --  -10.27591 -10.27448 -10.27426 -10.26381 -10.26258
 Alpha  occ. eigenvalues --  -10.25780 -10.23669 -10.22585 -10.22563 -10.22415
 Alpha  occ. eigenvalues --  -10.22382 -10.21676 -10.21594 -10.19241 -10.19168
 Alpha  occ. eigenvalues --  -10.19023  -0.96442  -0.95963  -0.94386  -0.94304
 Alpha  occ. eigenvalues --   -0.93458  -0.89551  -0.88706  -0.85045  -0.83856
 Alpha  occ. eigenvalues --   -0.82029  -0.77631  -0.77170  -0.75580  -0.70360
 Alpha  occ. eigenvalues --   -0.70058  -0.68996  -0.68533  -0.64018  -0.63777
 Alpha  occ. eigenvalues --   -0.62931  -0.59755  -0.59024  -0.57328  -0.57233
 Alpha  occ. eigenvalues --   -0.52574  -0.51055  -0.49546  -0.49096  -0.48485
 Alpha  occ. eigenvalues --   -0.47350  -0.46686  -0.45809  -0.45535  -0.45097
 Alpha  occ. eigenvalues --   -0.44834  -0.43839  -0.42717  -0.41639  -0.40968
 Alpha  occ. eigenvalues --   -0.40791  -0.40688  -0.40379  -0.40136  -0.39611
 Alpha  occ. eigenvalues --   -0.39415  -0.39096  -0.38310  -0.38128  -0.38037
 Alpha  occ. eigenvalues --   -0.38014  -0.37943  -0.37670  -0.36923  -0.36310
 Alpha  occ. eigenvalues --   -0.34863  -0.34594  -0.34391  -0.33755  -0.32552
 Alpha  occ. eigenvalues --   -0.28093  -0.27708  -0.26213
 Alpha virt. eigenvalues --   -0.17842  -0.07480  -0.07064  -0.04802  -0.03977
 Alpha virt. eigenvalues --   -0.03607  -0.02755  -0.01904  -0.00866  -0.00194
 Alpha virt. eigenvalues --    0.00316   0.00470   0.00674   0.00725   0.01422

 Mulliken charges:
               1
     1  C   -0.478795
     2  C    0.460712
     3  C   -0.498826
     4  C   -0.499144
     5  C    0.033374
     6  C   -0.314714
     7  C   -0.565526
     8  C    0.239031
     9  C   -0.156902
    10  C   -0.498809
    11  C    1.955931
    12  C    0.704140
    13  C   -0.117340
    14  N   -0.459941
    15  C   -0.490652
    16  N   -0.460444
    17  C   -1.027336
    18  C   -0.574433
    19  C    0.818272
    20  C    1.254869
    21  C   -0.432220
    22  N   -0.381266
    23  C   -0.135972
    24  N   -0.454603
    25  C   -0.219211
    26  C   -0.066535
    27  H    0.151264
    28  H    0.151029
    29  H    0.156013
    30  H    0.141554
    31  H    0.147501
    32  H    0.162944
    33  H    0.149123
    34  H    0.153363
    35  H    0.142800
    36  H    0.126388
    37  H    0.122176
    38  H    0.167070
    39  H    0.172199
    40  H    0.170785
    41  H    0.128945
    42  H    0.123185
 Sum of Mulliken charges =  -0.00000

 Dipole moment (field-independent basis, Debye):
    X=              3.7305    Y=             -0.7848    Z=              1.1047  Tot=              3.9690
 Quadrupole moment (field-independent basis, Debye-Ang):
   XX=           -170.6269   YY=           -193.8958   ZZ=           -150.1646
   XY=            -17.7880   XZ=              2.9865   YZ=              4.2701

 Normal termination of Gaussian 16 at Thu Aug  7 22:44:52 2025.
