 Gaussian 16, Revision C.02,
 Gaussian 16:  ES64L-G16RevC.02  7-Dec-2021

 ----------------------------------------------------------
 # td=(50-50,nstates=3) b3lyp/6-31+g(d,p) geom=connectivity
 ----------------------------------------------------------

 -------------------
 Title Card Required
 -------------------
 Symbolic Z-matrix:
 Charge =  0 Multiplicity = 1

                         Standard orientation:
 ---------------------------------------------------------------------
 Center     Atomic      Atomic             Coordinates (Angstroms)
 Number     Number       Type             X           Y           Z
 ---------------------------------------------------------------------
      1          6           0       -4.207419    0.626194    0.972560
      2          7           0       -3.036723   -0.130389    0.550753
      3          6           0       -3.204646   -1.417751    0.036077
      4          6           0       -2.261238   -2.053820   -0.677464
      5          6           0       -0.919646   -1.436820   -0.994794
      6          6           0       -0.875078    0.004209   -0.520136
      7          6           0        0.388052    0.772921   -0.881649
      8          6           0        0.285525    2.211826   -0.579706
      9          7           0        0.203881    3.345037   -0.336915
     10          6           0        1.663818    0.194512   -0.243161
     11          6           0        2.758974   -0.146645   -1.043190
     12          6           0        3.922677   -0.667998   -0.469227
     13          6           0        3.998948   -0.849323    0.913051
     14          6           0        2.906424   -0.508948    1.717544
     15          6           0        1.744713    0.007835    1.142346
     16          6           0       -1.883275    0.556127    0.183037
     17          1           0       -4.871431   -0.022339    1.550558
     18          1           0       -3.895474    1.451868    1.617250
     19          1           0       -4.771917    1.039328    0.123027
     20          1           0       -4.157656   -1.881753    0.268747
     21          1           0       -2.461665   -3.064614   -1.018152
     22          1           0       -0.716273   -1.483604   -2.079622
     23          1           0       -0.103920   -2.018839   -0.533322
     24          1           0        0.518504    0.703205   -1.972871
     25          1           0        2.705988   -0.003381   -2.119817
     26          1           0        4.765458   -0.930213   -1.102229
     27          1           0        4.901880   -1.252964    1.361716
     28          1           0        2.958932   -0.646960    2.793647
     29          1           0        0.895112    0.264650    1.768919
     30          1           0       -1.844610    1.589168    0.513553
 ---------------------------------------------------------------------

 SCF Done:  E(RB3LYP) =  -651.415269326     A.U. after   16 cycles

 Excitation energies and oscillator strengths:

 Excited State   1:      Triplet-A      2.8824 eV  430.14 nm  f=0.0000  <S**2>=2.000
      56 -> 57        -0.35211
      56 -> 58        -0.19334
      56 -> 59         0.46243
      56 -> 60        -0.28760
 This state for optimization and/or second-order correction.
 Total Energy, E(TD-HF/TD-DFT) =  -651.309342947
 Copying the excited state density for this state as the 1-particle RhoCI density.

 Excited State   2:      Triplet-A      3.6784 eV  337.06 nm  f=0.0000  <S**2>=2.000
      53 -> 57         0.10113
      54 -> 57        -0.14729
      54 -> 58        -0.32478
      55 -> 57        -0.37320
      55 -> 58         0.20191
      56 -> 57         0.29372
      56 -> 58        -0.23245

 Excited State   3:      Singlet-A      3.7334 eV  332.10 nm  f=0.0159  <S**2>=0.000
      56 -> 57         0.70217

 Excited State   4:      Triplet-A      3.8025 eV  326.06 nm  f=0.0000  <S**2>=2.000
      53 -> 57        -0.13329
      54 -> 57         0.11281
      54 -> 58         0.23098
      55 -> 57         0.20388
      55 -> 58        -0.12608
      56 -> 57         0.44418
      56 -> 58        -0.31637
      56 -> 59         0.12144

 Excited State   5:      Singlet-A      3.8500 eV  322.03 nm  f=0.0082  <S**2>=0.000
      56 -> 58         0.70184

 Excited State   6:      Singlet-A      4.1904 eV  295.88 nm  f=0.0532  <S**2>=0.000
      56 -> 59         0.69050

 The electronic state is 1-A.
 Alpha  occ. eigenvalues --  -14.37839 -14.34168 -10.25216 -10.23460 -10.23364
 Alpha  occ. eigenvalues --  -10.23021 -10.22724 -10.21961 -10.20726 -10.20639
 Alpha  occ. eigenvalues --  -10.20590 -10.20554 -10.20518 -10.20421 -10.20288
 Alpha  occ. eigenvalues --  -10.18890  -0.97314  -0.91267  -0.87548  -0.83649
 Alpha  occ. eigenvalues --   -0.79647  -0.76723  -0.75916  -0.72836  -0.71879
 Alpha  occ. eigenvalues --   -0.64755  -0.62812  -0.61941  -0.60436  -0.53921
 Alpha  occ. eigenvalues --   -0.53265  -0.52138  -0.49485  -0.48330  -0.47268
 Alpha  occ. eigenvalues --   -0.46507  -0.45454  -0.44235  -0.44117  -0.43376
 Alpha  occ. eigenvalues --   -0.42947  -0.42029  -0.40965  -0.37983  -0.37586
 Alpha  occ. eigenvalues --   -0.37071  -0.36586  -0.35690  -0.35169  -0.34875
 Alpha  occ. eigenvalues --   -0.33109  -0.32716  -0.27516  -0.26633  -0.26057
 Alpha  occ. eigenvalues --   -0.19122
 Alpha virt. eigenvalues --   -0.03018  -0.02705  -0.01128  -0.00480   0.00326
 Alpha virt. eigenvalues --    0.00899   0.01426   0.02161   0.02614   0.02784
 Alpha virt. eigenvalues --    0.03499   0.03520   0.03998   0.04282   0.04683

 Mulliken charges:
               1
     1  C   -0.183760
     2  N   -0.006896
     3  C   -0.004253
     4  C   -0.219323
     5  C   -0.552805
     6  C    0.160014
     7  C    0.370754
     8  C   -0.205465
     9  N   -0.448089
    10  C    0.065959
    11  C   -0.303388
    12  C   -0.194362
    13  C   -0.032955
    14  C   -0.181408
    15  C    0.070425
    16  C   -0.239995
    17  H    0.144789
    18  H    0.148551
    19  H    0.155612
    20  H    0.119496
    21  H    0.121763
    22  H    0.140440
    23  H    0.158991
    24  H    0.161974
    25  H    0.111782
    26  H    0.128846
    27  H    0.127068
    28  H    0.129740
    29  H    0.127030
    30  H    0.129467
 Sum of Mulliken charges =  -0.00000

 Dipole moment (field-independent basis, Debye):
    X=             -1.1811    Y=             -3.4473    Z=              0.2560  Tot=              3.6530
 Quadrupole moment (field-independent basis, Debye-Ang):
   XX=            -78.7793   YY=           -112.6908   ZZ=            -90.3233
   XY=             -4.7460   XZ=             -4.4812   YZ=              1.6790

 Normal termination of Gaussian 16 at Wed Aug 27 20:59:46 2025.
