 Gaussian 16, Revision C.02,
 Gaussian 16:  ES64L-G16RevC.02  7-Dec-2021

 ----------------------------------------------------------
 # td=(50-50,nstates=3) b3lyp/6-31+g(d,p) geom=connectivity
 ----------------------------------------------------------

 -------------------
 Title Card Required
 -------------------
 Symbolic Z-matrix:
 Charge =  0 Multiplicity = 1

                         Standard orientation:
 ---------------------------------------------------------------------
 Center     Atomic      Atomic             Coordinates (Angstroms)
 Number     Number       Type             X           Y           Z
 ---------------------------------------------------------------------
      1          6           0       -3.938882    3.135344   -0.588032
      2          7           0       -2.588143    2.739339   -0.969109
      3          6           0       -1.803580    3.725065   -1.697597
      4          7           0       -1.993387    1.959732   -0.031283
      5          6           0       -0.716607    1.857831    0.048840
      6          6           0       -0.122476    0.898563    1.073202
      7          6           0        0.508803    1.671038    2.159695
      8          7           0        0.999554    2.306178    3.000172
      9          6           0        0.857068   -0.083768    0.424218
     10          6           0        2.202020    0.255888    0.290531
     11          6           0        3.131108   -0.593259   -0.355484
     12          7           0        4.460410   -0.226480   -0.501344
     13          6           0        5.423900   -1.210427   -0.971547
     14          6           0        4.967031    0.933428    0.219629
     15          6           0        2.642765   -1.826795   -0.848930
     16          6           0        1.304168   -2.165467   -0.711129
     17          6           0        0.375290   -1.315235   -0.080176
     18          6           0       -0.990531   -1.713455    0.050786
     19          6           0       -2.151930   -2.056071    0.163415
     20          6           0       -3.556734   -2.465420    0.287321
     21          6           0       -4.136108   -2.893020   -1.078239
     22          6           0       -3.730275   -3.577483    1.344085
     23          1           0       -4.501727    3.415531   -1.483009
     24          1           0       -4.423700    2.282528   -0.111271
     25          1           0       -3.945165    3.982893    0.116399
     26          1           0       -2.467923    4.268600   -2.371797
     27          1           0       -1.310459    4.446031   -1.023104
     28          1           0       -1.035868    3.232765   -2.303103
     29          1           0       -0.006991    2.396310   -0.581306
     30          1           0       -0.957351    0.339706    1.509005
     31          1           0        2.536019    1.192921    0.717981
     32          1           0        5.517811   -2.072509   -0.292039
     33          1           0        5.149835   -1.585409   -1.963677
     34          1           0        6.402163   -0.735851   -1.059993
     35          1           0        4.431008    1.843010   -0.072351
     36          1           0        4.885041    0.823623    1.311853
     37          1           0        6.018160    1.077297   -0.034075
     38          1           0        3.306636   -2.530694   -1.334546
     39          1           0        0.957022   -3.120899   -1.091924
     40          1           0       -4.120841   -1.585631    0.629661
     41          1           0       -5.197073   -3.146677   -0.975683
     42          1           0       -4.040611   -2.090223   -1.814911
     43          1           0       -3.608455   -3.772635   -1.462265
     44          1           0       -4.790374   -3.831371    1.455078
     45          1           0       -3.346811   -3.259647    2.317944
     46          1           0       -3.189550   -4.481590    1.044540
 ---------------------------------------------------------------------

 SCF Done:  E(RB3LYP) =  -919.318126621     A.U. after   16 cycles

 Excitation energies and oscillator strengths:

 Excited State   1:      Triplet-A      2.9570 eV  419.30 nm  f=0.0000  <S**2>=2.000
      80 -> 81        -0.42610
      80 -> 82         0.51594
 This state for optimization and/or second-order correction.
 Total Energy, E(TD-HF/TD-DFT) =  -919.209460685
 Copying the excited state density for this state as the 1-particle RhoCI density.

 Excited State   2:      Triplet-A      3.3285 eV  372.49 nm  f=0.0000  <S**2>=2.000
      79 -> 81         0.42768
      79 -> 82         0.21069
      79 -> 83         0.29182
      79 -> 84         0.23268
      79 -> 86         0.11927
      80 -> 81         0.18701
      80 -> 82         0.19513

 Excited State   3:      Triplet-A      3.4226 eV  362.25 nm  f=0.0000  <S**2>=2.000
      79 -> 81        -0.17899
      79 -> 82        -0.10759
      80 -> 81         0.46721
      80 -> 82         0.36320
      80 -> 83        -0.22013
      80 -> 84        -0.14720

 Excited State   4:      Singlet-A      3.9948 eV  310.36 nm  f=0.0610  <S**2>=0.000
      80 -> 81         0.61466
      80 -> 82         0.31343

 Excited State   5:      Singlet-A      4.3555 eV  284.66 nm  f=0.4279  <S**2>=0.000
      80 -> 81        -0.29265
      80 -> 82         0.55094
      80 -> 83        -0.23653
      80 -> 84         0.15742

 Excited State   6:      Singlet-A      4.4611 eV  277.92 nm  f=0.1092  <S**2>=0.000
      80 -> 82         0.23172
      80 -> 83         0.63674

 The electronic state is 1-A.
 Alpha  occ. eigenvalues --  -14.38842 -14.37519 -14.36862 -14.33475 -10.24098
 Alpha  occ. eigenvalues --  -10.24084 -10.22852 -10.22808 -10.22781 -10.22655
 Alpha  occ. eigenvalues --  -10.22619 -10.21963 -10.21653 -10.21645 -10.21021
 Alpha  occ. eigenvalues --  -10.19947 -10.19328 -10.19293 -10.18289 -10.18279
 Alpha  occ. eigenvalues --  -10.18233 -10.18034  -1.01908  -0.95953  -0.90590
 Alpha  occ. eigenvalues --   -0.87168  -0.85408  -0.81466  -0.79769  -0.77519
 Alpha  occ. eigenvalues --   -0.74627  -0.73566  -0.72499  -0.71948  -0.68887
 Alpha  occ. eigenvalues --   -0.67514  -0.66816  -0.61603  -0.61214  -0.58679
 Alpha  occ. eigenvalues --   -0.57052  -0.54406  -0.53611  -0.51719  -0.51043
 Alpha  occ. eigenvalues --   -0.49356  -0.48217  -0.48077  -0.47435  -0.47398
 Alpha  occ. eigenvalues --   -0.45234  -0.44836  -0.43668  -0.43320  -0.42316
 Alpha  occ. eigenvalues --   -0.41625  -0.41576  -0.41402  -0.41045  -0.41017
 Alpha  occ. eigenvalues --   -0.39331  -0.39075  -0.38926  -0.38597  -0.37869
 Alpha  occ. eigenvalues --   -0.37005  -0.36443  -0.35937  -0.35278  -0.35162
 Alpha  occ. eigenvalues --   -0.34637  -0.32623  -0.32576  -0.31637  -0.28212
 Alpha  occ. eigenvalues --   -0.26096  -0.25834  -0.25583  -0.22177  -0.19470
 Alpha virt. eigenvalues --   -0.02659  -0.02220  -0.00762  -0.00371  -0.00085
 Alpha virt. eigenvalues --    0.00509   0.01528   0.01713   0.02440   0.02797
 Alpha virt. eigenvalues --    0.03089   0.03142   0.03386   0.03726   0.04011

 Mulliken charges:
               1
     1  C   -0.326677
     2  N    0.204558
     3  C   -0.314354
     4  N   -0.097079
     5  C   -0.523424
     6  C    0.004658
     7  C   -0.028932
     8  N   -0.468023
     9  C   -0.072788
    10  C   -0.191311
    11  C    0.118621
    12  N   -0.110731
    13  C   -0.284233
    14  C   -0.306760
    15  C    0.481585
    16  C   -0.598961
    17  C   -0.114757
    18  C    0.147885
    19  C    0.094359
    20  C   -0.013334
    21  C   -0.568643
    22  C   -0.552984
    23  H    0.142872
    24  H    0.164652
    25  H    0.140811
    26  H    0.149591
    27  H    0.154111
    28  H    0.149813
    29  H    0.115923
    30  H    0.198178
    31  H    0.119749
    32  H    0.151547
    33  H    0.147774
    34  H    0.134231
    35  H    0.149569
    36  H    0.160192
    37  H    0.132114
    38  H    0.111456
    39  H    0.137837
    40  H    0.157315
    41  H    0.142868
    42  H    0.155298
    43  H    0.154365
    44  H    0.143082
    45  H    0.153684
    46  H    0.154291
 Sum of Mulliken charges =  -0.00000

 Dipole moment (field-independent basis, Debye):
    X=              0.5787    Y=             -0.1808    Z=             -4.3382  Tot=              4.3804
 Quadrupole moment (field-independent basis, Debye-Ang):
   XX=           -102.9001   YY=           -128.1136   ZZ=           -147.7421
   XY=             -6.8444   XZ=             -5.4396   YZ=            -12.3013

 Normal termination of Gaussian 16 at Thu Aug  7 22:43:15 2025.
