 Gaussian 16, Revision C.02,
 Gaussian 16:  ES64L-G16RevC.02  7-Dec-2021

 ----------------------------------------------------------
 # td=(50-50,nstates=3) b3lyp/6-31+g(d,p) geom=connectivity
 ----------------------------------------------------------

 -------------------
 Title Card Required
 -------------------
 Symbolic Z-matrix:
 Charge =  0 Multiplicity = 1

                         Standard orientation:
 ---------------------------------------------------------------------
 Center     Atomic      Atomic             Coordinates (Angstroms)
 Number     Number       Type             X           Y           Z
 ---------------------------------------------------------------------
      1          6           0        2.943243    0.029502    1.457785
      2          6           0        2.615525   -0.013225   -0.042164
      3          6           0        2.358990    1.394861   -0.594300
      4          8           0        3.710583   -0.623636   -0.752296
      5          6           0        1.435000   -0.967888   -0.351617
      6          6           0        0.134470   -0.626732    0.315716
      7          6           0       -0.996306   -0.337338   -0.333642
      8          6           0       -2.302970   -0.021677    0.387616
      9          6           0       -2.752622    1.358060    0.104026
     10          7           0       -3.062233    2.454515   -0.115008
     11          6           0       -3.362834   -0.990248    0.035615
     12          7           0       -4.168038   -1.778907   -0.239201
     13          1           0        3.124112   -0.979775    1.840822
     14          1           0        2.137329    0.489995    2.038962
     15          1           0        3.847401    0.624804    1.630834
     16          1           0        2.174479    1.354100   -1.672240
     17          1           0        1.496111    1.865312   -0.112386
     18          1           0        3.228849    2.039675   -0.420157
     19          1           0        4.491746   -0.060175   -0.666463
     20          1           0        1.305418   -1.002354   -1.438365
     21          1           0        1.747743   -1.971801   -0.035477
     22          1           0        0.121699   -0.641208    1.406481
     23          1           0       -1.041320   -0.315339   -1.419763
     24          1           0       -2.141312   -0.095302    1.471380
 ---------------------------------------------------------------------

 SCF Done:  E(RB3LYP) =  -534.884666111     A.U. after   15 cycles

 Excitation energies and oscillator strengths:

 Excited State   1:      Triplet-A      4.0043 eV  309.63 nm  f=0.0000  <S**2>=2.000
      42 -> 45         0.10649
      43 -> 45         0.67239
      43 <- 45         0.10371
 This state for optimization and/or second-order correction.
 Total Energy, E(TD-HF/TD-DFT) =  -534.737509710
 Copying the excited state density for this state as the 1-particle RhoCI density.

 Excited State   2:      Triplet-A      5.7009 eV  217.48 nm  f=0.0000  <S**2>=2.000
      37 -> 46         0.18021
      37 -> 48        -0.13255
      37 -> 49        -0.13256
      39 -> 51         0.14043
      40 -> 46        -0.12950
      40 -> 47         0.37462
      41 -> 45        -0.17530
      41 -> 51         0.11882
      41 -> 55         0.10987
      42 -> 45        -0.12876
      43 -> 46         0.20037
      43 -> 47        -0.12814

 Excited State   3:      Triplet-A      5.7476 eV  215.71 nm  f=0.0000  <S**2>=2.000
      33 -> 47         0.10054
      37 -> 45        -0.18075
      37 -> 51         0.15525
      37 -> 55         0.13096
      39 -> 47         0.32449
      40 -> 45         0.10953
      40 -> 51         0.16378
      40 -> 52        -0.11376
      41 -> 46         0.22012
      41 -> 48        -0.15419
      41 -> 49        -0.15520
      42 -> 46         0.15099
      42 -> 48        -0.10250

 Excited State   4:      Singlet-A      6.0635 eV  204.48 nm  f=0.0005  <S**2>=0.000
      44 -> 45         0.70496

 Excited State   5:      Singlet-A      6.4509 eV  192.20 nm  f=0.0078  <S**2>=0.000
      43 -> 46         0.69355

 Excited State   6:      Singlet-A      6.5856 eV  188.26 nm  f=0.0404  <S**2>=0.000
      43 -> 45         0.22114
      43 -> 47         0.64378
      44 -> 46         0.10746

 The electronic state is 1-A.
 Alpha  occ. eigenvalues --  -19.17059 -14.37312 -14.37235 -10.31391 -10.27191
 Alpha  occ. eigenvalues --  -10.26620 -10.26535 -10.24311 -10.23826 -10.21426
 Alpha  occ. eigenvalues --  -10.20006 -10.19658  -1.04161  -0.94807  -0.93367
 Alpha  occ. eigenvalues --   -0.87343  -0.82930  -0.78115  -0.71372  -0.71195
 Alpha  occ. eigenvalues --   -0.62321  -0.60096  -0.58775  -0.54492  -0.51834
 Alpha  occ. eigenvalues --   -0.50916  -0.47953  -0.46712  -0.44380  -0.43409
 Alpha  occ. eigenvalues --   -0.41918  -0.40140  -0.39756  -0.39462  -0.38737
 Alpha  occ. eigenvalues --   -0.37944  -0.37425  -0.37180  -0.36661  -0.35902
 Alpha  occ. eigenvalues --   -0.35353  -0.34805  -0.29783  -0.29480
 Alpha virt. eigenvalues --   -0.04562  -0.02654  -0.02266  -0.01041  -0.00460
 Alpha virt. eigenvalues --    0.00506   0.00910   0.01508   0.02095   0.02976
 Alpha virt. eigenvalues --    0.03555   0.03884   0.04490   0.05087   0.05393

 Mulliken charges:
               1
     1  C   -0.485135
     2  C    0.133141
     3  C   -0.432597
     4  O   -0.480361
     5  C   -0.494393
     6  C    0.361783
     7  C   -0.443688
     8  C    0.252126
     9  C    0.200942
    10  N   -0.450428
    11  C    0.232106
    12  N   -0.458326
    13  H    0.160365
    14  H    0.144551
    15  H    0.145065
    16  H    0.161283
    17  H    0.160344
    18  H    0.140844
    19  H    0.336586
    20  H    0.152785
    21  H    0.171702
    22  H    0.122464
    23  H    0.154337
    24  H    0.214503
 Sum of Mulliken charges =   0.00000

 Dipole moment (field-independent basis, Debye):
    X=              4.9428    Y=              0.3202    Z=              2.2713  Tot=              5.4491
 Quadrupole moment (field-independent basis, Debye-Ang):
   XX=            -90.5366   YY=            -88.2085   ZZ=            -70.3079
   XY=              5.2246   XZ=             -1.4855   YZ=             -1.6815

 Normal termination of Gaussian 16 at Wed Aug  6 21:57:19 2025.
