 Gaussian 16, Revision C.02,
 Gaussian 16:  ES64L-G16RevC.02  7-Dec-2021

 ----------------------------------------------------------
 # td=(50-50,nstates=3) b3lyp/6-31+g(d,p) geom=connectivity
 ----------------------------------------------------------

 -------------------
 Title Card Required
 -------------------
 Symbolic Z-matrix:
 Charge =  0 Multiplicity = 1

                         Standard orientation:
 ---------------------------------------------------------------------
 Center     Atomic      Atomic             Coordinates (Angstroms)
 Number     Number       Type             X           Y           Z
 ---------------------------------------------------------------------
      1          6           0       -0.235866   -0.126863    2.682143
      2          6           0       -0.620721    0.420094    1.513912
      3          6           0       -1.985017    0.214834    0.956850
      4          6           0       -2.193927    0.122980   -0.427414
      5          6           0       -3.467857   -0.106832   -0.954146
      6          6           0       -4.585529   -0.241192   -0.121164
      7          6           0       -5.991841   -0.487267   -0.643649
      8          6           0       -6.156398   -0.544188   -2.165109
      9          6           0       -4.376853   -0.133025    1.264751
     10          6           0       -3.109682    0.091285    1.794595
     11          6           0        0.321697    1.304413    0.758706
     12          6           0       -0.048500    2.629994    0.497001
     13          6           0        0.833628    3.538738   -0.090010
     14          6           0        2.130412    3.153111   -0.451345
     15          6           0        3.140097    4.098736   -1.082296
     16          6           0        2.655436    5.523909   -1.362976
     17          6           0        2.494537    1.820008   -0.223381
     18          6           0        1.615376    0.897878    0.360378
     19          6           0        2.069957   -0.502790    0.480696
     20          7           0        3.266629   -0.812599    0.930470
     21          8           0        3.317384   -2.211472    0.799410
     22          6           0        2.136291   -2.585240    0.277558
     23          6           0        1.895634   -4.028808    0.020705
     24         17           0        2.700433   -4.584380   -1.512909
     25          7           0        1.326721   -1.593311    0.062208
     26          1           0        0.746362    0.067594    3.101202
     27          1           0       -0.889354   -0.788197    3.242505
     28          1           0       -1.348170    0.212486   -1.101935
     29          1           0       -3.578826   -0.181770   -2.031004
     30          1           0       -6.360402   -1.427293   -0.209911
     31          1           0       -6.649989    0.295531   -0.242344
     32          1           0       -7.205575   -0.718080   -2.424329
     33          1           0       -5.848228    0.393153   -2.641066
     34          1           0       -5.568216   -1.355795   -2.606992
     35          1           0       -5.227161   -0.213569    1.938981
     36          1           0       -2.990660    0.197118    2.868924
     37          1           0       -1.042683    2.960613    0.783069
     38          1           0        0.498952    4.557067   -0.258156
     39          1           0        4.022428    4.143149   -0.429420
     40          1           0        3.493369    3.649094   -2.019878
     41          1           0        3.457995    6.110003   -1.821452
     42          1           0        1.803075    5.534347   -2.051157
     43          1           0        2.354538    6.039331   -0.444379
     44          1           0        3.480731    1.474997   -0.522041
     45          1           0        2.299734   -4.642971    0.825240
     46          1           0        0.826942   -4.197863   -0.095262
 ---------------------------------------------------------------------

 SCF Done:  E(RB3LYP) =  -1457.83096891     A.U. after   16 cycles

 Excitation energies and oscillator strengths:

 Excited State   1:      Triplet-A      2.9124 eV  425.71 nm  f=0.0000  <S**2>=2.000
      89 -> 95        -0.12124
      91 -> 98         0.10547
      92 -> 97        -0.10702
      93 -> 94         0.18247
      93 -> 95         0.60156
      93 -> 97        -0.11940
 This state for optimization and/or second-order correction.
 Total Energy, E(TD-HF/TD-DFT) =  -1457.72394053
 Copying the excited state density for this state as the 1-particle RhoCI density.

 Excited State   2:      Triplet-A      3.3907 eV  365.66 nm  f=0.0000  <S**2>=2.000
      88 -> 94        -0.11024
      90 -> 94         0.20003
      90 -> 96        -0.23097
      91 -> 94        -0.12772
      91 -> 96         0.13952
      91 -> 98        -0.10276
      92 -> 94        -0.18017
      92 -> 95        -0.25793
      92 -> 97        -0.12675
      93 -> 94         0.25092
      93 -> 96        -0.12300
      93 -> 97         0.30497

 Excited State   3:      Triplet-A      3.6869 eV  336.28 nm  f=0.0000  <S**2>=2.000
      90 -> 96         0.21787
      90 -> 97         0.11592
      92 -> 97         0.14597
      93 -> 94         0.56436
      93 -> 95        -0.11887
      93 -> 96        -0.14038
      93 -> 97        -0.10232

 Excited State   4:      Singlet-A      3.7756 eV  328.38 nm  f=0.0273  <S**2>=0.000
      93 -> 94         0.70207

 Excited State   5:      Singlet-A      4.4372 eV  279.42 nm  f=0.0688  <S**2>=0.000
      93 -> 95         0.60642
      93 -> 96        -0.30475
      93 -> 97         0.13578

 Excited State   6:      Singlet-A      4.4718 eV  277.26 nm  f=0.0727  <S**2>=0.000
      90 -> 94         0.13167
      90 -> 95         0.10925
      93 -> 95         0.26754
      93 -> 96         0.59102
      93 -> 97         0.13057

 The electronic state is 1-A.
 Alpha  occ. eigenvalues -- -101.55836 -19.26531 -14.40531 -14.36222 -10.31479
 Alpha  occ. eigenvalues --  -10.28295 -10.27506 -10.22120 -10.21475 -10.21237
 Alpha  occ. eigenvalues --  -10.21113 -10.20387 -10.20331 -10.20274 -10.20210
 Alpha  occ. eigenvalues --  -10.20154 -10.20083 -10.19704 -10.19559 -10.19334
 Alpha  occ. eigenvalues --  -10.19316 -10.19215 -10.18814 -10.18777 -10.18491
 Alpha  occ. eigenvalues --   -9.47360  -7.23814  -7.22763  -7.22739  -1.18101
 Alpha  occ. eigenvalues --   -0.95866  -0.90730  -0.87888  -0.86475  -0.85863
 Alpha  occ. eigenvalues --   -0.82305  -0.79508  -0.77249  -0.76650  -0.74876
 Alpha  occ. eigenvalues --   -0.73504  -0.73325  -0.71597  -0.67059  -0.64906
 Alpha  occ. eigenvalues --   -0.64308  -0.63121  -0.60844  -0.60348  -0.59512
 Alpha  occ. eigenvalues --   -0.57974  -0.55939  -0.52629  -0.51588  -0.50992
 Alpha  occ. eigenvalues --   -0.49155  -0.48161  -0.47932  -0.46662  -0.45969
 Alpha  occ. eigenvalues --   -0.45584  -0.45488  -0.45344  -0.44882  -0.44406
 Alpha  occ. eigenvalues --   -0.43758  -0.43468  -0.42494  -0.42019  -0.40960
 Alpha  occ. eigenvalues --   -0.38942  -0.38521  -0.38184  -0.37734  -0.37386
 Alpha  occ. eigenvalues --   -0.36370  -0.36035  -0.35773  -0.35211  -0.35114
 Alpha  occ. eigenvalues --   -0.34868  -0.34338  -0.33784  -0.33277  -0.32293
 Alpha  occ. eigenvalues --   -0.31762  -0.31244  -0.30463  -0.28942  -0.26168
 Alpha  occ. eigenvalues --   -0.25523  -0.25332  -0.22362
 Alpha virt. eigenvalues --   -0.06501  -0.04454  -0.03520  -0.02395  -0.01169
 Alpha virt. eigenvalues --   -0.00406   0.00400   0.00790   0.01434   0.01700
 Alpha virt. eigenvalues --    0.01911   0.02163   0.02609   0.02845   0.03270

 Mulliken charges:
               1
     1  C   -0.166873
     2  C    0.636400
     3  C   -0.171325
     4  C   -0.661635
     5  C   -0.876728
     6  C    0.511069
     7  C   -0.222801
     8  C   -0.680380
     9  C   -0.020832
    10  C    0.340310
    11  C   -0.206203
    12  C    0.080176
    13  C   -1.372174
    14  C    0.501566
    15  C   -0.217831
    16  C   -0.681456
    17  C    0.321662
    18  C    0.108067
    19  C    0.217025
    20  N   -0.369766
    21  O    0.105406
    22  C    0.167098
    23  C   -0.443225
    24  Cl   0.063224
    25  N   -0.102512
    26  H    0.138440
    27  H    0.127658
    28  H    0.120152
    29  H    0.120012
    30  H    0.160637
    31  H    0.158507
    32  H    0.146872
    33  H    0.155129
    34  H    0.154708
    35  H    0.118577
    36  H    0.118795
    37  H    0.127141
    38  H    0.124431
    39  H    0.165494
    40  H    0.161436
    41  H    0.149440
    42  H    0.154543
    43  H    0.154315
    44  H    0.141160
    45  H    0.219224
    46  H    0.225071
 Sum of Mulliken charges =  -0.00000

 Dipole moment (field-independent basis, Debye):
    X=             -2.4622    Y=              0.9731    Z=              0.1397  Tot=              2.6512
 Quadrupole moment (field-independent basis, Debye-Ang):
   XX=           -153.4018   YY=           -144.5621   ZZ=           -154.5097
   XY=              8.7952   XZ=             -2.2821   YZ=             -9.2263

 Normal termination of Gaussian 16 at Sun Sep 21 22:44:22 2025.
