 Gaussian 16, Revision C.02,
 Gaussian 16:  ES64L-G16RevC.02  7-Dec-2021

 ----------------------------------------------------------
 # td=(50-50,nstates=3) b3lyp/6-31+g(d,p) geom=connectivity
 ----------------------------------------------------------

 -------------------
 Title Card Required
 -------------------
 Symbolic Z-matrix:
 Charge =  0 Multiplicity = 1

                         Standard orientation:
 ---------------------------------------------------------------------
 Center     Atomic      Atomic             Coordinates (Angstroms)
 Number     Number       Type             X           Y           Z
 ---------------------------------------------------------------------
      1          6           0        5.517288    1.712384    0.000631
      2          8           0        4.820512    0.464836    0.000584
      3          6           0        3.474785    0.452783    0.000277
      4          6           0        2.685399    1.563227    0.000146
      5          6           0        1.238447    1.507309   -0.000040
      6          6           0        0.493796    2.674568   -0.000143
      7          6           0       -1.012470    2.828229   -0.000331
      8          6           0        1.206574    3.914332   -0.000065
      9          7           0        1.753723    4.944858    0.000026
     10          6           0        0.651941    0.161101   -0.000041
     11          8           0       -0.697517    0.115151   -0.000154
     12          6           0       -1.362856   -1.172902    0.000053
     13          6           0       -2.846822   -0.930655    0.000053
     14          6           0       -3.549172   -0.810489    1.206088
     15          6           0       -4.922817   -0.565830    1.215729
     16          6           0       -5.597709   -0.443014    0.000050
     17         17           0       -7.326156   -0.139298    0.000045
     18          6           0       -4.922520   -0.564198   -1.215635
     19          6           0       -3.548889   -0.808897   -1.205995
     20          6           0        1.446791   -0.951753    0.000074
     21          6           0        2.881701   -0.883615    0.000096
     22          6           0        3.637400   -2.054645   -0.000147
     23          6           0        5.062200   -2.152219   -0.000308
     24          7           0        6.210038   -2.353754   -0.000478
     25          6           0        2.969207   -3.319245   -0.000341
     26          7           0        2.400201   -4.336679   -0.000502
     27          1           0        5.275302    2.292935    0.897888
     28          1           0        6.574726    1.450678    0.000686
     29          1           0        5.275442    2.292919   -0.896675
     30          1           0        3.142776    2.543403    0.000254
     31          1           0       -1.459403    2.353982    0.877584
     32          1           0       -1.277703    3.886574   -0.000610
     33          1           0       -1.459263    2.353525   -0.878057
     34          1           0       -1.051300   -1.729563   -0.891051
     35          1           0       -1.051289   -1.729307    0.891308
     36          1           0       -3.021782   -0.911218    2.151021
     37          1           0       -5.464283   -0.476776    2.150965
     38          1           0       -5.463758   -0.473894   -2.150882
     39          1           0       -3.021286   -0.908403   -2.150938
     40          1           0        1.001128   -1.936481    0.000064
 ---------------------------------------------------------------------

 SCF Done:  E(RB3LYP) =  -1545.41334287     A.U. after   17 cycles

 Excitation energies and oscillator strengths:

 Excited State   1:      Triplet-A      0.9403 eV 1318.52 nm  f=0.0000  <S**2>=2.000
      94 -> 95         0.74225
      94 <- 95         0.25444
 This state for optimization and/or second-order correction.
 Total Energy, E(TD-HF/TD-DFT) =  -1545.37878656
 Copying the excited state density for this state as the 1-particle RhoCI density.

 Excited State   2:      Triplet-A      2.0495 eV  604.95 nm  f=0.0000  <S**2>=2.000
      93 -> 95         0.69608

 Excited State   3:      Singlet-A      2.6977 eV  459.59 nm  f=0.0269  <S**2>=0.000
      93 -> 95         0.67503
      94 -> 95        -0.19281

 Excited State   4:      Singlet-A      3.0035 eV  412.79 nm  f=0.8764  <S**2>=0.000
      93 -> 95         0.19224
      94 -> 95         0.68756
      94 <- 95        -0.14697

 Excited State   5:      Triplet-A      3.2105 eV  386.18 nm  f=0.0000  <S**2>=2.000
      92 -> 95         0.70620

 Excited State   6:      Singlet-A      3.2147 eV  385.68 nm  f=0.0000  <S**2>=0.000
      92 -> 95         0.70637

 The electronic state is 1-A.
 Alpha  occ. eigenvalues -- -101.57482 -19.23716 -19.22579 -14.36827 -14.36324
 Alpha  occ. eigenvalues --  -14.35167 -10.31253 -10.30329 -10.29093 -10.28498
 Alpha  occ. eigenvalues --  -10.28407 -10.27889 -10.27734 -10.26889 -10.26823
 Alpha  occ. eigenvalues --  -10.25797 -10.25708 -10.24913 -10.24057 -10.23638
 Alpha  occ. eigenvalues --  -10.23635 -10.23580 -10.23510 -10.23510 -10.23400
 Alpha  occ. eigenvalues --  -10.22216  -9.48991  -7.25402  -7.24427  -7.24389
 Alpha  occ. eigenvalues --   -1.12178  -1.11386  -0.93875  -0.93653  -0.92122
 Alpha  occ. eigenvalues --   -0.91693  -0.90876  -0.87483  -0.86826  -0.82374
 Alpha  occ. eigenvalues --   -0.81349  -0.79104  -0.78897  -0.76861  -0.74199
 Alpha  occ. eigenvalues --   -0.71959  -0.69555  -0.67025  -0.65551  -0.63607
 Alpha  occ. eigenvalues --   -0.62298  -0.60097  -0.58627  -0.57198  -0.54971
 Alpha  occ. eigenvalues --   -0.54561  -0.53238  -0.52555  -0.50559  -0.50365
 Alpha  occ. eigenvalues --   -0.49482  -0.48827  -0.48693  -0.46978  -0.46454
 Alpha  occ. eigenvalues --   -0.45901  -0.45827  -0.44253  -0.44094  -0.43187
 Alpha  occ. eigenvalues --   -0.42446  -0.41739  -0.41272  -0.40198  -0.39680
 Alpha  occ. eigenvalues --   -0.38985  -0.38839  -0.38718  -0.38484  -0.38451
 Alpha  occ. eigenvalues --   -0.37668  -0.37448  -0.35991  -0.35744  -0.35569
 Alpha  occ. eigenvalues --   -0.35496  -0.34172  -0.33625  -0.33432  -0.32648
 Alpha  occ. eigenvalues --   -0.29541  -0.27677  -0.26648  -0.24164
 Alpha virt. eigenvalues --   -0.14314  -0.05836  -0.05227  -0.04934  -0.02500
 Alpha virt. eigenvalues --   -0.02125  -0.01637  -0.00964  -0.00516  -0.00218
 Alpha virt. eigenvalues --    0.00050   0.00390   0.00612   0.01226   0.01884

 Mulliken charges:
               1
     1  C   -0.124696
     2  O   -0.336191
     3  C   -0.350453
     4  C   -0.833174
     5  C    0.351001
     6  C    1.601873
     7  C   -0.523961
     8  C   -0.415901
     9  N   -0.492773
    10  C   -0.014261
    11  O   -0.316382
    12  C    0.239056
    13  C   -0.238888
    14  C   -0.094942
    15  C   -0.241803
    16  C    0.027015
    17  Cl   0.246025
    18  C   -0.241573
    19  C   -0.093506
    20  C   -0.385906
    21  C    0.076262
    22  C    1.569384
    23  C   -0.033772
    24  N   -0.524311
    25  C   -0.541551
    26  N   -0.483832
    27  H    0.156033
    28  H    0.170045
    29  H    0.156025
    30  H    0.148457
    31  H    0.186149
    32  H    0.165489
    33  H    0.186148
    34  H    0.146992
    35  H    0.146948
    36  H    0.130707
    37  H    0.151703
    38  H    0.151699
    39  H    0.130701
    40  H    0.150159
 Sum of Mulliken charges =  -0.00000

 Dipole moment (field-independent basis, Debye):
    X=             -4.9912    Y=              2.8739    Z=              0.0012  Tot=              5.7594
 Quadrupole moment (field-independent basis, Debye-Ang):
   XX=           -185.7380   YY=           -201.3449   ZZ=           -150.7286
   XY=             22.3111   XZ=              0.0054   YZ=             -0.0096

 Normal termination of Gaussian 16 at Wed Aug  6 22:03:38 2025.
