 Gaussian 16, Revision C.02,
 Gaussian 16:  ES64L-G16RevC.02  7-Dec-2021

 ----------------------------------------------------------
 # td=(50-50,nstates=3) b3lyp/6-31+g(d,p) geom=connectivity
 ----------------------------------------------------------

 -------------------
 Title Card Required
 -------------------
 Symbolic Z-matrix:
 Charge =  0 Multiplicity = 1

                         Standard orientation:
 ---------------------------------------------------------------------
 Center     Atomic      Atomic             Coordinates (Angstroms)
 Number     Number       Type             X           Y           Z
 ---------------------------------------------------------------------
      1          6           0       -1.860756   -2.293632    2.013360
      2          7           0       -2.329848   -2.354929    0.628044
      3          6           0       -1.659547   -1.470929   -0.337242
      4          6           0       -0.169692   -1.600152   -0.276196
      5          6           0        0.703746   -0.563051   -0.183535
      6          6           0        2.119984   -0.794133   -0.183084
      7          6           0        3.329916   -0.964915   -0.180097
      8         14           0        5.161069   -1.210813   -0.177427
      9          6           0        5.836312   -0.632872    1.489341
     10          6           0        5.516813   -3.047844   -0.436318
     11          6           0        5.899394   -0.187005   -1.582480
     12          6           0        0.282768    0.805603   -0.087487
     13          6           0       -0.036833    1.982325   -0.004843
     14         14           0       -0.502516    3.768845    0.115705
     15          6           0        1.086258    4.789102    0.091906
     16          6           0       -1.594863    4.200240   -1.362926
     17          6           0       -1.439174    4.030779    1.734508
     18          7           0       -3.679796   -2.494790    0.570542
     19          6           0       -4.380126   -2.112836   -0.434796
     20          6           0       -5.861470   -2.423965   -0.425441
     21          6           0       -6.685254   -1.226223   -0.641567
     22          7           0       -7.322659   -0.272901   -0.825853
     23          1           0       -2.408267   -3.043289    2.585577
     24          1           0       -0.792759   -2.516278    2.051149
     25          1           0       -2.032227   -1.304281    2.464473
     26          1           0       -1.977941   -1.784559   -1.340575
     27          1           0       -1.972723   -0.423438   -0.203351
     28          1           0        0.237110   -2.605529   -0.349575
     29          1           0        6.925022   -0.757194    1.530295
     30          1           0        5.610535    0.425051    1.661180
     31          1           0        5.399751   -1.206804    2.313827
     32          1           0        6.596999   -3.236176   -0.441754
     33          1           0        5.108960   -3.399326   -1.390272
     34          1           0        5.073628   -3.653288    0.361790
     35          1           0        5.673836    0.877332   -1.455949
     36          1           0        6.989648   -0.300298   -1.612831
     37          1           0        5.500059   -0.500963   -2.552881
     38          1           0        0.859837    5.859720    0.161079
     39          1           0        1.737103    4.526493    0.932812
     40          1           0        1.649188    4.622119   -0.832711
     41          1           0       -1.885331    5.257129   -1.332625
     42          1           0       -2.511505    3.600686   -1.368667
     43          1           0       -1.070313    4.021866   -2.307792
     44          1           0       -0.823851    3.753574    2.597210
     45          1           0       -1.725473    5.083120    1.848213
     46          1           0       -2.353771    3.428910    1.766059
     47          1           0       -3.987497   -1.596797   -1.312093
     48          1           0       -6.114742   -3.148367   -1.212249
     49          1           0       -6.123779   -2.876468    0.536032
 ---------------------------------------------------------------------

 SCF Done:  E(RB3LYP) =  -1407.28944053     A.U. after   16 cycles

 Excitation energies and oscillator strengths:

 Excited State   1:      Triplet-A      2.4352 eV  509.13 nm  f=0.0000  <S**2>=2.000
      88 -> 90         0.69366
      88 <- 90         0.13159
 This state for optimization and/or second-order correction.
 Total Energy, E(TD-HF/TD-DFT) =  -1407.19994883
 Copying the excited state density for this state as the 1-particle RhoCI density.

 Excited State   2:      Triplet-A      3.3928 eV  365.44 nm  f=0.0000  <S**2>=2.000
      89 -> 91         0.63397
      89 -> 92        -0.20407

 Excited State   3:      Triplet-A      3.6510 eV  339.59 nm  f=0.0000  <S**2>=2.000
      89 -> 90         0.69933

 Excited State   4:      Singlet-A      3.7075 eV  334.41 nm  f=0.0004  <S**2>=0.000
      89 -> 90         0.70489

 Excited State   5:      Singlet-A      4.4113 eV  281.06 nm  f=0.0080  <S**2>=0.000
      87 -> 90         0.68951

 Excited State   6:      Singlet-A      4.4713 eV  277.29 nm  f=0.4891  <S**2>=0.000
      88 -> 90         0.67589

 The electronic state is 1-A.
 Alpha  occ. eigenvalues --  -66.14357 -66.14342 -14.39743 -14.38733 -14.34385
 Alpha  occ. eigenvalues --  -10.25443 -10.24724 -10.24420 -10.24189 -10.23799
 Alpha  occ. eigenvalues --  -10.22824 -10.22204 -10.20629 -10.20495 -10.18285
 Alpha  occ. eigenvalues --  -10.18046 -10.17238 -10.17178 -10.17161 -10.17152
 Alpha  occ. eigenvalues --  -10.17145 -10.17120  -5.28640  -5.28624  -3.64646
 Alpha  occ. eigenvalues --   -3.64624  -3.64464  -3.64463  -3.64453  -3.64450
 Alpha  occ. eigenvalues --   -1.02831  -0.91235  -0.87714  -0.84888  -0.78915
 Alpha  occ. eigenvalues --   -0.76540  -0.75241  -0.72902  -0.71894  -0.71159
 Alpha  occ. eigenvalues --   -0.68647  -0.68594  -0.68579  -0.68560  -0.67980
 Alpha  occ. eigenvalues --   -0.62975  -0.58226  -0.55734  -0.55084  -0.51978
 Alpha  occ. eigenvalues --   -0.51779  -0.50805  -0.49751  -0.48799  -0.46095
 Alpha  occ. eigenvalues --   -0.45218  -0.43359  -0.42819  -0.42758  -0.41905
 Alpha  occ. eigenvalues --   -0.41516  -0.41456  -0.41445  -0.41427  -0.40336
 Alpha  occ. eigenvalues --   -0.40102  -0.39973  -0.39941  -0.39904  -0.39879
 Alpha  occ. eigenvalues --   -0.38846  -0.38792  -0.37372  -0.37092  -0.36145
 Alpha  occ. eigenvalues --   -0.36011  -0.35756  -0.33628  -0.33246  -0.32156
 Alpha  occ. eigenvalues --   -0.32029  -0.31908  -0.31465  -0.29434  -0.28781
 Alpha  occ. eigenvalues --   -0.28073  -0.27115  -0.24027  -0.23375
 Alpha virt. eigenvalues --   -0.06946  -0.02432  -0.01524  -0.01242  -0.00856
 Alpha virt. eigenvalues --   -0.00085   0.00634   0.00903   0.01022   0.01474
 Alpha virt. eigenvalues --    0.01949   0.02096   0.02295   0.02374   0.02682

 Mulliken charges:
               1
     1  C   -0.353347
     2  N    0.425291
     3  C   -0.801247
     4  C    0.130742
     5  C   -0.498732
     6  C    0.542684
     7  C   -0.960253
     8  Si   1.228295
     9  C   -0.678245
    10  C   -0.672997
    11  C   -0.674878
    12  C    0.420780
    13  C   -0.882503
    14  Si   1.193291
    15  C   -0.688006
    16  C   -0.681839
    17  C   -0.681726
    18  N   -0.452122
    19  C    0.243128
    20  C   -0.330386
    21  C    0.254927
    22  N   -0.505657
    23  H    0.164097
    24  H    0.153353
    25  H    0.144521
    26  H    0.144879
    27  H    0.165040
    28  H    0.150407
    29  H    0.161227
    30  H    0.167833
    31  H    0.165582
    32  H    0.162016
    33  H    0.166066
    34  H    0.165554
    35  H    0.167757
    36  H    0.161087
    37  H    0.166185
    38  H    0.162242
    39  H    0.167528
    40  H    0.167465
    41  H    0.162839
    42  H    0.168188
    43  H    0.166102
    44  H    0.165991
    45  H    0.163160
    46  H    0.167099
    47  H    0.126879
    48  H    0.194788
    49  H    0.204917
 Sum of Mulliken charges =  -0.00000

 Dipole moment (field-independent basis, Debye):
    X=              4.1603    Y=             -1.4922    Z=              0.1776  Tot=              4.4234
 Quadrupole moment (field-independent basis, Debye-Ang):
   XX=           -178.3319   YY=           -138.8754   ZZ=           -149.7449
   XY=              9.6556   XZ=             -2.1339   YZ=              3.0771

 Normal termination of Gaussian 16 at Wed Aug  6 22:05:55 2025.
