 Gaussian 16, Revision C.02,
 Gaussian 16:  ES64L-G16RevC.02  7-Dec-2021

 ----------------------------------------------------------
 # td=(50-50,nstates=3) b3lyp/6-31+g(d,p) geom=connectivity
 ----------------------------------------------------------

 -------------------
 Title Card Required
 -------------------
 Symbolic Z-matrix:
 Charge =  0 Multiplicity = 1

                         Standard orientation:
 ---------------------------------------------------------------------
 Center     Atomic      Atomic             Coordinates (Angstroms)
 Number     Number       Type             X           Y           Z
 ---------------------------------------------------------------------
      1          6           0        5.658191    0.958246   -1.362313
      2          6           0        4.912615    0.050311   -0.364545
      3          6           0        5.294793   -1.418298   -0.671778
      4          6           0        5.385567    0.414483    1.064117
      5          6           0        3.384882    0.217774   -0.460757
      6          6           0        2.763159    1.093392   -1.349590
      7          6           0        1.374470    1.174495   -1.375197
      8          6           0        0.526633    0.425179   -0.541544
      9          6           0       -0.970560    0.704728   -0.828320
     10          6           0       -1.783258   -0.482280   -1.286868
     11          6           0       -3.085689   -0.645197   -1.008912
     12         17           0       -3.956630   -2.016185   -1.666472
     13          6           0       -3.820290    0.295583   -0.151021
     14          7           0       -5.081286    0.082823    0.056655
     15          8           0       -5.645679    1.059590    0.888427
     16          6           0       -3.056197    1.412293    0.406285
     17          6           0       -1.748331    1.564677    0.144805
     18         17           0       -0.887262    2.927715    0.832499
     19          6           0        1.134837   -0.471666    0.390848
     20          6           0        0.419896   -1.438952    1.383654
     21          6           0        1.341996   -1.841624    2.565188
     22          6           0       -0.839106   -0.827412    2.030138
     23          6           0        0.036792   -2.743188    0.638757
     24          6           0        2.541376   -0.530064    0.373100
     25          1           0        5.455276    2.018926   -1.179112
     26          1           0        6.738012    0.807119   -1.260092
     27          1           0        5.390439    0.730992   -2.399886
     28          1           0        4.833844   -2.116326    0.033729
     29          1           0        6.381293   -1.548741   -0.607409
     30          1           0        4.977074   -1.702794   -1.680745
     31          1           0        6.473183    0.302609    1.143395
     32          1           0        5.131115    1.451493    1.308211
     33          1           0        4.928501   -0.229249    1.821750
     34          1           0        3.334434    1.715321   -2.028674
     35          1           0        0.924367    1.866435   -2.082466
     36          1           0       -0.923969    1.343123   -1.726527
     37          1           0       -1.278939   -1.184799   -1.941523
     38          1           0       -6.568985    0.778714    0.945346
     39          1           0       -3.581403    2.104612    1.050921
     40          1           0        0.755753   -2.419785    3.286243
     41          1           0        2.178267   -2.478220    2.262474
     42          1           0        1.742939   -0.965277    3.085564
     43          1           0       -1.209514   -1.499223    2.811883
     44          1           0       -1.650995   -0.698473    1.320843
     45          1           0       -0.622206    0.139170    2.495925
     46          1           0        0.921970   -3.215590    0.199465
     47          1           0       -0.417496   -3.455515    1.337699
     48          1           0       -0.684108   -2.561364   -0.161060
     49          1           0        3.021099   -1.210512    1.061295
 ---------------------------------------------------------------------

 SCF Done:  E(RB3LYP) =  -1827.53289514     A.U. after   16 cycles

 Excitation energies and oscillator strengths:

 Excited State   1:      Triplet-A      2.3007 eV  538.90 nm  f=0.0000  <S**2>=2.000
      94 -> 99        -0.13477
      96 -> 98        -0.11231
      97 -> 98         0.67887
      97 <- 98         0.13781
 This state for optimization and/or second-order correction.
 Total Energy, E(TD-HF/TD-DFT) =  -1827.44834555
 Copying the excited state density for this state as the 1-particle RhoCI density.

 Excited State   2:      Triplet-A      3.3400 eV  371.21 nm  f=0.0000  <S**2>=2.000
      94 -> 98         0.49917
      96 -> 98         0.14761
      97 -> 99        -0.38985
      97 ->101        -0.17414

 Excited State   3:      Triplet-A      3.6184 eV  342.65 nm  f=0.0000  <S**2>=2.000
      95 -> 99        -0.23540
      95 ->100         0.15877
      95 ->101         0.35243
      96 -> 99         0.21986
      96 ->100         0.43825
      96 ->101        -0.10830
      97 ->100         0.10054

 Excited State   4:      Singlet-A      4.2104 eV  294.47 nm  f=0.0293  <S**2>=0.000
      96 -> 98         0.62669
      97 -> 98         0.30209

 Excited State   5:      Singlet-A      4.4043 eV  281.51 nm  f=0.0045  <S**2>=0.000
      95 -> 98         0.69869

 Excited State   6:      Singlet-A      4.4531 eV  278.42 nm  f=0.2247  <S**2>=0.000
      94 -> 98         0.22691
      95 -> 98        -0.10396
      96 -> 98        -0.30792
      97 -> 98         0.48913
      97 -> 99         0.28062

 The electronic state is 1-A.
 Alpha  occ. eigenvalues -- -101.56715-101.55818 -19.21231 -14.39981 -10.27919
 Alpha  occ. eigenvalues --  -10.27047 -10.25622 -10.24358 -10.22556 -10.21827
 Alpha  occ. eigenvalues --  -10.21781 -10.21567 -10.21493 -10.21398 -10.20397
 Alpha  occ. eigenvalues --  -10.19943 -10.19417 -10.19131 -10.18358 -10.18316
 Alpha  occ. eigenvalues --  -10.18299 -10.18169 -10.17979 -10.17468  -9.48132
 Alpha  occ. eigenvalues --   -9.47251  -7.24542  -7.23689  -7.23601  -7.23525
 Alpha  occ. eigenvalues --   -7.22693  -7.22636  -1.10039  -0.92476  -0.89485
 Alpha  occ. eigenvalues --   -0.87409  -0.86012  -0.83631  -0.82460  -0.81086
 Alpha  occ. eigenvalues --   -0.77009  -0.74881  -0.74416  -0.70952  -0.69363
 Alpha  occ. eigenvalues --   -0.69251  -0.69072  -0.68972  -0.64068  -0.62204
 Alpha  occ. eigenvalues --   -0.61227  -0.59269  -0.57335  -0.54679  -0.53385
 Alpha  occ. eigenvalues --   -0.52017  -0.50705  -0.49866  -0.47916  -0.46833
 Alpha  occ. eigenvalues --   -0.46525  -0.46043  -0.45647  -0.44941  -0.44656
 Alpha  occ. eigenvalues --   -0.44483  -0.44159  -0.43679  -0.43340  -0.42908
 Alpha  occ. eigenvalues --   -0.41567  -0.40359  -0.39668  -0.39086  -0.38692
 Alpha  occ. eigenvalues --   -0.38474  -0.37932  -0.37747  -0.37507  -0.37312
 Alpha  occ. eigenvalues --   -0.36674  -0.36136  -0.35975  -0.34821  -0.34032
 Alpha  occ. eigenvalues --   -0.33428  -0.33223  -0.32578  -0.32080  -0.31943
 Alpha  occ. eigenvalues --   -0.31667  -0.31442  -0.29200  -0.26875  -0.25326
 Alpha  occ. eigenvalues --   -0.24968  -0.23666
 Alpha virt. eigenvalues --   -0.06986  -0.03439  -0.02130  -0.01336  -0.00637
 Alpha virt. eigenvalues --    0.00404   0.00493   0.00664   0.00990   0.01401
 Alpha virt. eigenvalues --    0.01950   0.02483   0.02659   0.03019   0.03244

 Mulliken charges:
               1
     1  C   -0.504653
     2  C    0.470703
     3  C   -0.505484
     4  C   -0.499417
     5  C   -0.197634
     6  C   -0.648415
     7  C   -0.427655
     8  C    0.685889
     9  C   -0.575190
    10  C   -0.121771
    11  C    0.575983
    12  Cl   0.177295
    13  C   -0.749098
    14  N   -0.349217
    15  O   -0.218325
    16  C    0.441945
    17  C   -0.483331
    18  Cl   0.174912
    19  C    0.432535
    20  C    0.443916
    21  C   -0.457988
    22  C   -0.518162
    23  C   -0.570615
    24  C   -0.405515
    25  H    0.152081
    26  H    0.147510
    27  H    0.151337
    28  H    0.139859
    29  H    0.144708
    30  H    0.151261
    31  H    0.144261
    32  H    0.152185
    33  H    0.141272
    34  H    0.120932
    35  H    0.108062
    36  H    0.170992
    37  H    0.148688
    38  H    0.375415
    39  H    0.170322
    40  H    0.147165
    41  H    0.140091
    42  H    0.161834
    43  H    0.139172
    44  H    0.136689
    45  H    0.158692
    46  H    0.149343
    47  H    0.147449
    48  H    0.143983
    49  H    0.085988
 Sum of Mulliken charges =  -0.00000

 Dipole moment (field-independent basis, Debye):
    X=              2.1722    Y=              0.1154    Z=              0.1300  Tot=              2.1791
 Quadrupole moment (field-independent basis, Debye-Ang):
   XX=           -152.4786   YY=           -164.2262   ZZ=           -159.5721
   XY=             -4.3975   XZ=             -5.7878   YZ=             -5.0314

 Normal termination of Gaussian 16 at Sun Sep 21 23:03:09 2025.
