 Gaussian 16, Revision C.02,
 Gaussian 16:  ES64L-G16RevC.02  7-Dec-2021

 ----------------------------------------------------------
 # td=(50-50,nstates=3) b3lyp/6-31+g(d,p) geom=connectivity
 ----------------------------------------------------------

 -------------------
 Title Card Required
 -------------------
 Symbolic Z-matrix:
 Charge =  0 Multiplicity = 1

                         Standard orientation:
 ---------------------------------------------------------------------
 Center     Atomic      Atomic             Coordinates (Angstroms)
 Number     Number       Type             X           Y           Z
 ---------------------------------------------------------------------
      1          6           0        2.783303   -1.115879    0.073749
      2          6           0        1.619303   -0.149935    0.272232
      3          8           0        1.924502    1.008014   -0.503877
      4          6           0        0.288372   -0.801235   -0.159878
      5          6           0       -0.983440   -0.139294    0.455600
      6          6           0       -1.069509    1.307429    0.181410
      7          7           0       -1.082781    2.452717   -0.006303
      8          6           0       -2.207838   -0.823113    0.003637
      9          7           0       -3.149564   -1.402524   -0.347417
     10          1           0        2.664782   -2.008239    0.696391
     11          1           0        2.847749   -1.423766   -0.975154
     12          1           0        3.720829   -0.622196    0.341457
     13          1           0        1.560168    0.120541    1.340051
     14          1           0        1.306449    1.726016   -0.309245
     15          1           0        0.220357   -0.778299   -1.251568
     16          1           0        0.265571   -1.849258    0.156080
     17          1           0       -0.936650   -0.248104    1.548543
 ---------------------------------------------------------------------

 SCF Done:  E(RB3LYP) =  -418.163650706     A.U. after   13 cycles

 Excitation energies and oscillator strengths:

 Excited State   1:      Triplet-A      5.7382 eV  216.07 nm  f=0.0000  <S**2>=2.000
      25 -> 34        -0.10599
      27 -> 34        -0.13338
      28 -> 34         0.10960
      28 -> 37        -0.17614
      29 -> 34         0.10039
      29 -> 37         0.16026
      30 -> 34        -0.14098
      30 -> 35        -0.13410
      30 -> 39         0.20309
      30 -> 40        -0.14957
      30 -> 41         0.10666
      31 -> 35         0.18606
      31 -> 36        -0.17946
      31 -> 37        -0.13566
      32 -> 34         0.24021
      32 -> 36         0.10168
      33 -> 34         0.18250
 This state for optimization and/or second-order correction.
 Total Energy, E(TD-HF/TD-DFT) =  -417.952775281
 Copying the excited state density for this state as the 1-particle RhoCI density.

 Excited State   2:      Triplet-A      5.7824 eV  214.42 nm  f=0.0000  <S**2>=2.000
      28 -> 34        -0.22058
      28 -> 36        -0.12528
      29 -> 35        -0.18417
      29 -> 36         0.12237
      30 -> 34        -0.33136
      30 -> 35        -0.22044
      31 -> 37        -0.20862
      32 -> 34        -0.12380
      32 -> 37         0.12200

 Excited State   3:      Triplet-A      6.2863 eV  197.23 nm  f=0.0000  <S**2>=2.000
      30 -> 37        -0.13717
      31 -> 34        -0.11270
      31 -> 35        -0.21529
      31 -> 36         0.10852
      32 -> 34         0.10988
      33 -> 34         0.56736

 Excited State   4:      Singlet-A      6.4208 eV  193.10 nm  f=0.0165  <S**2>=0.000
      33 -> 34         0.69585

 Excited State   5:      Singlet-A      6.5086 eV  190.49 nm  f=0.0087  <S**2>=0.000
      33 -> 35         0.69440

 Excited State   6:      Singlet-A      7.0398 eV  176.12 nm  f=0.0027  <S**2>=0.000
      33 -> 36         0.65972
      33 -> 37        -0.14423
      33 -> 38        -0.12903

 The electronic state is 1-A.
 Alpha  occ. eigenvalues --  -19.17587 -14.38586 -14.37831 -10.31760 -10.27920
 Alpha  occ. eigenvalues --  -10.27689 -10.27109 -10.24480 -10.20169  -1.04757
 Alpha  occ. eigenvalues --   -0.95843  -0.94288  -0.87210  -0.79460  -0.71470
 Alpha  occ. eigenvalues --   -0.63218  -0.60447  -0.57052  -0.53526  -0.50477
 Alpha  occ. eigenvalues --   -0.46985  -0.43430  -0.41614  -0.41074  -0.40626
 Alpha  occ. eigenvalues --   -0.39986  -0.39579  -0.38347  -0.37768  -0.36717
 Alpha  occ. eigenvalues --   -0.36357  -0.34601  -0.30282
 Alpha virt. eigenvalues --   -0.03611  -0.03388  -0.01157  -0.00316   0.00653
 Alpha virt. eigenvalues --    0.00892   0.01110   0.01759   0.03630   0.04459
 Alpha virt. eigenvalues --    0.04889   0.05412   0.05999   0.07137   0.07776

 Mulliken charges:
               1
     1  C   -0.547676
     2  C    0.210662
     3  O   -0.488070
     4  C   -0.423083
     5  C    0.401440
     6  C    0.221192
     7  N   -0.461441
     8  C   -0.001158
     9  N   -0.453896
    10  H    0.146478
    11  H    0.163595
    12  H    0.172115
    13  H    0.118915
    14  H    0.351544
    15  H    0.194187
    16  H    0.169032
    17  H    0.226164
 Sum of Mulliken charges =  -0.00000

 Dipole moment (field-independent basis, Debye):
    X=              2.5080    Y=             -2.1380    Z=              2.5582  Tot=              4.1720
 Quadrupole moment (field-independent basis, Debye-Ang):
   XX=            -68.7240   YY=            -62.9388   ZZ=            -52.6589
   XY=             -5.6949   XZ=             -0.7290   YZ=             -0.0057

 Normal termination of Gaussian 16 at Wed Aug  6 22:05:05 2025.
