 Gaussian 16, Revision C.02,
 Gaussian 16:  ES64L-G16RevC.02  7-Dec-2021

 ----------------------------------------------------------
 # td=(50-50,nstates=3) b3lyp/6-31+g(d,p) geom=connectivity
 ----------------------------------------------------------

 -------------------
 Title Card Required
 -------------------
 Symbolic Z-matrix:
 Charge =  0 Multiplicity = 1

                         Standard orientation:
 ---------------------------------------------------------------------
 Center     Atomic      Atomic             Coordinates (Angstroms)
 Number     Number       Type             X           Y           Z
 ---------------------------------------------------------------------
      1          6           0       -1.426596    3.135579    0.410980
      2          7           0       -1.354688    1.889535   -0.341085
      3          6           0       -0.034934    1.303140   -0.560650
      4          6           0        0.570308    0.576417    0.669168
      5          6           0        1.921198   -0.026898    0.354064
      6          6           0        2.036535   -1.366598   -0.046317
      7          6           0        3.279620   -1.913547   -0.375500
      8          6           0        4.432224   -1.126506   -0.309368
      9          6           0        4.332443    0.209026    0.091001
     10          6           0        3.087652    0.751065    0.419236
     11          7           0       -2.470320    1.135723   -0.241391
     12          6           0       -2.506648   -0.101876   -0.585798
     13          6           0       -3.839869   -0.814721   -0.537920
     14          6           0       -3.788176   -2.041731    0.270501
     15          7           0       -3.723819   -3.015222    0.901031
     16          1           0       -2.445482    3.519014    0.342722
     17          1           0       -1.172028    3.009251    1.474355
     18          1           0       -0.739298    3.863777   -0.030223
     19          1           0       -0.089399    0.617247   -1.413326
     20          1           0        0.629297    2.117884   -0.866175
     21          1           0        0.665577    1.296305    1.490219
     22          1           0       -0.118318   -0.203394    1.009719
     23          1           0        1.147456   -1.991619   -0.087956
     24          1           0        3.347314   -2.955205   -0.676278
     25          1           0        5.399690   -1.551063   -0.560949
     26          1           0        5.223777    0.826959    0.153982
     27          1           0        3.022049    1.788622    0.739794
     28          1           0       -1.646661   -0.674941   -0.936058
     29          1           0       -4.590693   -0.137001   -0.119506
     30          1           0       -4.174034   -1.096193   -1.546594
 ---------------------------------------------------------------------

 SCF Done:  E(RB3LYP) =  -630.547697710     A.U. after   15 cycles

 Excitation energies and oscillator strengths:

 Excited State   1:      Triplet-A      3.2467 eV  381.88 nm  f=0.0000  <S**2>=2.000
      53 -> 57         0.10733
      54 -> 55         0.47247
      54 -> 57         0.46254
 This state for optimization and/or second-order correction.
 Total Energy, E(TD-HF/TD-DFT) =  -630.428385472
 Copying the excited state density for this state as the 1-particle RhoCI density.

 Excited State   2:      Triplet-A      3.7154 eV  333.70 nm  f=0.0000  <S**2>=2.000
      52 -> 56         0.45306
      53 -> 55        -0.38905
      53 -> 57         0.26700
      54 -> 55         0.15509
      54 -> 57        -0.16688

 Excited State   3:      Triplet-A      4.5158 eV  274.56 nm  f=0.0000  <S**2>=2.000
      52 -> 55        -0.21353
      52 -> 57         0.15286
      53 -> 56         0.46584
      54 -> 56        -0.43704

 Excited State   4:      Singlet-A      4.8773 eV  254.21 nm  f=0.1556  <S**2>=0.000
      54 -> 55         0.67130
      54 -> 56        -0.10752
      54 -> 57        -0.15847

 Excited State   5:      Singlet-A      4.9194 eV  252.03 nm  f=0.0068  <S**2>=0.000
      52 -> 55        -0.13607
      54 -> 55         0.10367
      54 -> 56         0.67090

 Excited State   6:      Singlet-A      5.1579 eV  240.38 nm  f=0.0502  <S**2>=0.000
      54 -> 55         0.12788
      54 -> 57         0.26499
      54 -> 58         0.61868
      54 -> 59        -0.10041
      54 -> 60         0.10185

 The electronic state is 1-A.
 Alpha  occ. eigenvalues --  -14.39562 -14.38672 -14.34270 -10.24540 -10.23890
 Alpha  occ. eigenvalues --  -10.23681 -10.23680 -10.22678 -10.21240 -10.20657
 Alpha  occ. eigenvalues --  -10.20402 -10.20336 -10.20281 -10.20201 -10.20184
 Alpha  occ. eigenvalues --   -1.02826  -0.91121  -0.87417  -0.86575  -0.80366
 Alpha  occ. eigenvalues --   -0.78108  -0.75593  -0.74456  -0.68998  -0.66459
 Alpha  occ. eigenvalues --   -0.61697  -0.59445  -0.57255  -0.54709  -0.52564
 Alpha  occ. eigenvalues --   -0.51725  -0.50047  -0.47948  -0.47571  -0.46200
 Alpha  occ. eigenvalues --   -0.45762  -0.43479  -0.43120  -0.42722  -0.41907
 Alpha  occ. eigenvalues --   -0.41300  -0.40147  -0.38085  -0.37020  -0.36749
 Alpha  occ. eigenvalues --   -0.36008  -0.35241  -0.34825  -0.33539  -0.33131
 Alpha  occ. eigenvalues --   -0.28968  -0.26355  -0.25988  -0.22446
 Alpha virt. eigenvalues --   -0.02581  -0.02223  -0.01683  -0.00752   0.00384
 Alpha virt. eigenvalues --    0.00586   0.01394   0.01901   0.02344   0.02629
 Alpha virt. eigenvalues --    0.02723   0.03804   0.03892   0.04470   0.04784

 Mulliken charges:
               1
     1  C   -0.269014
     2  N    0.152558
     3  C   -0.668976
     4  C   -0.214461
     5  C    0.282285
     6  C   -0.186008
     7  C   -0.306168
     8  C   -0.047513
     9  C   -0.144935
    10  C   -0.009326
    11  N   -0.174527
    12  C    0.077197
    13  C   -0.376827
    14  C    0.214216
    15  N   -0.498833
    16  H    0.165788
    17  H    0.139760
    18  H    0.143155
    19  H    0.142748
    20  H    0.152059
    21  H    0.143824
    22  H    0.155608
    23  H    0.120946
    24  H    0.128102
    25  H    0.125117
    26  H    0.125914
    27  H    0.112957
    28  H    0.118505
    29  H    0.203703
    30  H    0.192143
 Sum of Mulliken charges =  -0.00000

 Dipole moment (field-independent basis, Debye):
    X=              2.1685    Y=              3.7477    Z=             -1.9818  Tot=              4.7619
 Quadrupole moment (field-independent basis, Debye-Ang):
   XX=            -91.7582   YY=            -96.7612   ZZ=            -94.6663
   XY=             -9.7238   XZ=              6.6264   YZ=              9.5298

 Normal termination of Gaussian 16 at Wed Aug 27 20:56:06 2025.
