 Gaussian 16, Revision C.02,
 Gaussian 16:  ES64L-G16RevC.02  7-Dec-2021

 ----------------------------------------------------------
 # td=(50-50,nstates=3) b3lyp/6-31+g(d,p) geom=connectivity
 ----------------------------------------------------------

 -------------------
 Title Card Required
 -------------------
 Symbolic Z-matrix:
 Charge =  0 Multiplicity = 1

                         Standard orientation:
 ---------------------------------------------------------------------
 Center     Atomic      Atomic             Coordinates (Angstroms)
 Number     Number       Type             X           Y           Z
 ---------------------------------------------------------------------
      1          6           0        1.334415    1.905031    2.132834
      2          6           0        1.270669    2.353607    0.710666
      3          7           0        1.549101    1.619392   -0.333220
      4          8           0        1.492558    2.040939   -1.557100
      5          6           0        1.964698    0.223574   -0.213054
      6          6           0        3.334456   -0.033169   -0.250764
      7          6           0        3.796017   -1.346652   -0.183508
      8          6           0        2.876615   -2.394645   -0.087353
      9          6           0        1.509356   -2.124464   -0.061985
     10          6           0        1.012946   -0.808504   -0.128410
     11          6           0       -0.457230   -0.574559   -0.103592
     12          6           0       -1.258289   -1.270715    0.820966
     13          6           0       -2.639877   -1.107732    0.842303
     14          6           0       -3.253999   -0.235671   -0.072821
     15          6           0       -4.678237   -0.062287   -0.056264
     16          7           0       -5.833811    0.077577   -0.039436
     17          6           0       -2.464211    0.466133   -0.999736
     18          6           0       -1.082290    0.298283   -1.013985
     19          1           0        1.968109    2.586720    2.713478
     20          1           0        0.336399    1.933137    2.588979
     21          1           0        1.731068    0.894061    2.237922
     22          1           0        0.972123    3.367218    0.461770
     23          1           0        4.023479    0.800750   -0.336697
     24          1           0        4.862121   -1.548632   -0.211593
     25          1           0        3.222300   -3.422992   -0.045069
     26          1           0        0.801806   -2.946608   -0.018009
     27          1           0       -0.791937   -1.934641    1.542492
     28          1           0       -3.245453   -1.645225    1.564428
     29          1           0       -2.937186    1.136844   -1.709395
     30          1           0       -0.480560    0.843687   -1.734692
 ---------------------------------------------------------------------

 SCF Done:  E(RB3LYP) =  -763.511584315     A.U. after   17 cycles

 Excitation energies and oscillator strengths:

 Excited State   1:      Triplet-A      2.2648 eV  547.45 nm  f=0.0000  <S**2>=2.000
      62 -> 64         0.59492
      62 -> 65        -0.36289
      62 -> 66         0.16439
      62 <- 64         0.14533
 This state for optimization and/or second-order correction.
 Total Energy, E(TD-HF/TD-DFT) =  -763.428355825
 Copying the excited state density for this state as the 1-particle RhoCI density.

 Excited State   2:      Triplet-A      3.0990 eV  400.08 nm  f=0.0000  <S**2>=2.000
      57 -> 67        -0.15961
      59 -> 65        -0.12176
      59 -> 66        -0.14586
      60 -> 63         0.47819
      61 -> 63         0.40465

 Excited State   3:      Triplet-A      3.5154 eV  352.69 nm  f=0.0000  <S**2>=2.000
      62 -> 63         0.66306

 Excited State   4:      Singlet-A      3.5716 eV  347.14 nm  f=0.0035  <S**2>=0.000
      62 -> 63         0.70184

 Excited State   5:      Singlet-A      4.0748 eV  304.27 nm  f=0.0622  <S**2>=0.000
      60 -> 63        -0.14978
      61 -> 63         0.64566
      61 -> 64        -0.14147
      62 -> 64         0.13072

 Excited State   6:      Singlet-A      4.1569 eV  298.26 nm  f=0.0054  <S**2>=0.000
      60 -> 64        -0.16669
      60 -> 65         0.11388
      61 -> 63         0.18614
      61 -> 64         0.55610
      61 -> 65        -0.27393
      61 -> 66         0.11123

 The electronic state is 1-A.
 Alpha  occ. eigenvalues --  -19.13546 -14.48772 -14.34882 -10.26242 -10.25394
 Alpha  occ. eigenvalues --  -10.25155 -10.24035 -10.23985 -10.23798 -10.23078
 Alpha  occ. eigenvalues --  -10.22760 -10.22571 -10.22524 -10.22428 -10.22365
 Alpha  occ. eigenvalues --  -10.22263 -10.21940 -10.21698  -1.10938  -0.91900
 Alpha  occ. eigenvalues --   -0.90798  -0.88709  -0.87072  -0.81800  -0.79289
 Alpha  occ. eigenvalues --   -0.77933  -0.76667  -0.74286  -0.68424  -0.66543
 Alpha  occ. eigenvalues --   -0.64359  -0.62651  -0.59099  -0.57281  -0.54213
 Alpha  occ. eigenvalues --   -0.52185  -0.51311  -0.50227  -0.48835  -0.48572
 Alpha  occ. eigenvalues --   -0.46616  -0.46268  -0.45455  -0.44935  -0.42829
 Alpha  occ. eigenvalues --   -0.42267  -0.41747  -0.41382  -0.40847  -0.39773
 Alpha  occ. eigenvalues --   -0.38857  -0.37810  -0.37247  -0.36600  -0.35741
 Alpha  occ. eigenvalues --   -0.34041  -0.29985  -0.29319  -0.28533  -0.26340
 Alpha  occ. eigenvalues --   -0.25066  -0.23388
 Alpha virt. eigenvalues --   -0.07748  -0.04832  -0.03999  -0.03983  -0.02904
 Alpha virt. eigenvalues --   -0.01230   0.00119   0.00297   0.01317   0.01992
 Alpha virt. eigenvalues --    0.02065   0.02760   0.03069   0.03645   0.03795

 Mulliken charges:
               1
     1  C   -0.385484
     2  C    0.012008
     3  N   -0.084677
     4  O   -0.153274
     5  C   -0.613565
     6  C   -0.002226
     7  C   -0.152090
     8  C    0.049970
     9  C   -0.667815
    10  C    0.566368
    11  C    0.562088
    12  C    0.106149
    13  C   -0.418837
    14  C    0.496839
    15  C   -0.166465
    16  N   -0.533848
    17  C   -0.235342
    18  C   -0.221219
    19  H    0.167762
    20  H    0.174935
    21  H    0.171887
    22  H    0.160344
    23  H    0.147155
    24  H    0.137872
    25  H    0.134408
    26  H    0.135042
    27  H    0.129046
    28  H    0.148020
    29  H    0.152357
    30  H    0.182593
 Sum of Mulliken charges =  -0.00000

 Dipole moment (field-independent basis, Debye):
    X=              5.4772    Y=             -2.0455    Z=              3.8906  Tot=              7.0229
 Quadrupole moment (field-independent basis, Debye-Ang):
   XX=           -132.3750   YY=            -98.6546   ZZ=           -107.2584
   XY=             -2.7178   XZ=              5.1723   YZ=              5.4690

 Normal termination of Gaussian 16 at Wed Aug  6 22:10:14 2025.
