 Gaussian 16, Revision C.02,
 Gaussian 16:  ES64L-G16RevC.02  7-Dec-2021

 ----------------------------------------------------------
 # td=(50-50,nstates=3) b3lyp/6-31+g(d,p) geom=connectivity
 ----------------------------------------------------------

 -------------------
 Title Card Required
 -------------------
 Symbolic Z-matrix:
 Charge =  0 Multiplicity = 1

                         Standard orientation:
 ---------------------------------------------------------------------
 Center     Atomic      Atomic             Coordinates (Angstroms)
 Number     Number       Type             X           Y           Z
 ---------------------------------------------------------------------
      1          6           0       -6.407387    3.567160    1.314475
      2          6           0       -6.970972    2.410848    0.538317
      3          6           0       -6.280842    1.329484    0.154267
      4          6           0       -6.521299    0.129836   -0.664360
      5          6           0       -7.616575   -0.499330   -1.376545
      6          6           0       -8.919175    0.032816   -1.296152
      7          6           0       -9.972609   -0.570838   -1.979636
      8          6           0       -9.746903   -1.714008   -2.752880
      9          6           0       -8.458604   -2.251334   -2.835530
     10          6           0       -7.396967   -1.656294   -2.156019
     11          7           0       -5.243917   -0.248983   -0.596566
     12          8           0       -4.547498   -1.185752   -1.084935
     13          6           0       -4.806021    0.911951    0.282634
     14          6           0       -4.192696    0.530137    1.605256
     15          6           0       -4.884123    0.702676    2.809390
     16          6           0       -4.276831    0.446388    4.040099
     17          6           0       -2.950481    0.012525    4.064716
     18          6           0       -2.249471   -0.194086    2.876819
     19          6           0       -2.862547    0.035926    1.635471
     20          7           0       -2.193707   -0.180675    0.411473
     21          6           0       -0.857062   -0.674840    0.385456
     22          6           0       -0.613403   -2.068710    0.566728
     23          7           0       -0.448669   -3.216466    0.703816
     24          6           0        0.174447    0.194436    0.155692
     25          6           0        0.162804    1.611375   -0.103678
     26          6           0        1.454770    2.000397   -0.275300
     27          6           0        2.305494    0.845760   -0.120833
     28          6           0        3.663558    0.705237   -0.205226
     29          6           0        4.361998   -0.595391   -0.148425
     30          6           0        5.667710   -0.669403    0.372583
     31          6           0        6.353736   -1.881663    0.451019
     32          6           0        5.781292   -3.081142    0.002106
     33          6           0        6.504100   -4.437270    0.072616
     34          6           0        7.916079   -4.319212    0.678910
     35          6           0        5.680512   -5.411953    0.950422
     36          6           0        6.639323   -5.024104   -1.354263
     37          6           0        4.480993   -3.000504   -0.530828
     38          6           0        3.784616   -1.799786   -0.603994
     39          6           0        4.480625    1.943613   -0.349711
     40          6           0        5.398146    2.075278   -1.404196
     41          6           0        6.159229    3.235762   -1.558655
     42          6           0        6.048465    4.303938   -0.657217
     43          6           0        6.857925    5.584986   -0.780111
     44          6           0        7.859828    5.653383   -1.936169
     45          6           0        5.144042    4.162316    0.407749
     46          6           0        4.374947    3.010303    0.561643
     47          8           0        1.472022   -0.240963    0.141901
     48          1           0       -6.935266    3.699279    2.268003
     49          1           0       -5.344525    3.438114    1.534086
     50          1           0       -6.530562    4.503861    0.756171
     51          1           0       -8.021250    2.482808    0.265508
     52          1           0       -9.109033    0.913042   -0.692739
     53          1           0      -10.971281   -0.150210   -1.906859
     54          1           0      -10.569558   -2.183328   -3.284354
     55          1           0       -8.278089   -3.141039   -3.431633
     56          1           0       -6.398181   -2.072825   -2.215335
     57          1           0       -4.115847    1.537855   -0.298291
     58          1           0       -5.908271    1.058796    2.778263
     59          1           0       -4.830441    0.590483    4.962447
     60          1           0       -2.457630   -0.186353    5.012146
     61          1           0       -1.229584   -0.560751    2.908586
     62          1           0       -2.796281   -0.611582   -0.294136
     63          1           0       -0.733516    2.209796   -0.162308
     64          1           0        1.813415    2.990844   -0.514068
     65          1           0        6.150604    0.231617    0.736456
     66          1           0        7.351385   -1.875733    0.874752
     67          1           0        8.386398   -5.307840    0.706276
     68          1           0        8.562485   -3.663106    0.085746
     69          1           0        7.889260   -3.939217    1.705895
     70          1           0        6.180521   -6.386011    1.005023
     71          1           0        4.676033   -5.573822    0.548591
     72          1           0        5.573722   -5.025901    1.969786
     73          1           0        7.222204   -4.357044   -1.998783
     74          1           0        7.149078   -5.993884   -1.317620
     75          1           0        5.664143   -5.178300   -1.825656
     76          1           0        3.988981   -3.896064   -0.897628
     77          1           0        2.786052   -1.798110   -1.021718
     78          1           0        5.509130    1.263645   -2.117248
     79          1           0        6.846344    3.299316   -2.396011
     80          1           0        6.157362    6.427228   -0.864612
     81          1           0        7.392188    5.745135    0.166224
     82          1           0        8.386762    6.612533   -1.920665
     83          1           0        8.612868    4.860791   -1.867430
     84          1           0        7.364364    5.565005   -2.909107
     85          1           0        5.047298    4.965321    1.135460
     86          1           0        3.702527    2.922268    1.410166
 ---------------------------------------------------------------------

 SCF Done:  E(RB3LYP) =  -1938.66204787     A.U. after   18 cycles

 Excitation energies and oscillator strengths:

 Excited State   1:      Triplet-A      1.3375 eV  926.99 nm  f=0.0000  <S**2>=2.000
     164 -> 165        0.70231
     164 <- 165        0.15800
 This state for optimization and/or second-order correction.
 Total Energy, E(TD-HF/TD-DFT) =  -1938.61289589
 Copying the excited state density for this state as the 1-particle RhoCI density.

 Excited State   2:      Triplet-A      1.7615 eV  703.84 nm  f=0.0000  <S**2>=2.000
     162 -> 166       -0.40594
     163 -> 166        0.57128
     162 <- 166       -0.10687
     163 <- 166        0.14124

 Excited State   3:      Triplet-A      2.6971 eV  459.69 nm  f=0.0000  <S**2>=2.000
     162 -> 165        0.42463
     163 -> 165        0.54853

 Excited State   4:      Singlet-A      2.6976 eV  459.61 nm  f=0.1314  <S**2>=0.000
     162 -> 165        0.35639
     163 -> 165        0.47487
     164 -> 165       -0.37808

 Excited State   5:      Singlet-A      2.8817 eV  430.24 nm  f=0.8616  <S**2>=0.000
     162 -> 165        0.18575
     163 -> 165        0.33280
     164 -> 165        0.59013

 Excited State   6:      Singlet-A      2.9916 eV  414.44 nm  f=0.0088  <S**2>=0.000
     162 -> 165        0.57925
     163 -> 165       -0.40200

 The electronic state is 1-A.
 Alpha  occ. eigenvalues --  -19.22171 -19.16199 -14.47677 -14.35795 -14.32751
 Alpha  occ. eigenvalues --  -10.28034 -10.26940 -10.25636 -10.25452 -10.25034
 Alpha  occ. eigenvalues --  -10.23987 -10.22604 -10.22596 -10.22587 -10.22256
 Alpha  occ. eigenvalues --  -10.21973 -10.21972 -10.21563 -10.21381 -10.21275
 Alpha  occ. eigenvalues --  -10.21039 -10.20946 -10.20892 -10.20766 -10.20698
 Alpha  occ. eigenvalues --  -10.20643 -10.20638 -10.20451 -10.20419 -10.20387
 Alpha  occ. eigenvalues --  -10.20306 -10.20278 -10.20236 -10.20234 -10.20067
 Alpha  occ. eigenvalues --  -10.19893 -10.19731 -10.19612 -10.19314 -10.19216
 Alpha  occ. eigenvalues --  -10.19100 -10.19060 -10.19030 -10.18981 -10.17839
 Alpha  occ. eigenvalues --  -10.17782 -10.17559  -1.12432  -1.12077  -0.95239
 Alpha  occ. eigenvalues --   -0.94676  -0.89096  -0.88237  -0.87091  -0.86552
 Alpha  occ. eigenvalues --   -0.85527  -0.83944  -0.82857  -0.81197  -0.80288
 Alpha  occ. eigenvalues --   -0.80036  -0.78983  -0.77522  -0.76365  -0.75962
 Alpha  occ. eigenvalues --   -0.75884  -0.74935  -0.74040  -0.73692  -0.71603
 Alpha  occ. eigenvalues --   -0.70532  -0.69514  -0.68861  -0.68580  -0.67131
 Alpha  occ. eigenvalues --   -0.64641  -0.63861  -0.62688  -0.62007  -0.62003
 Alpha  occ. eigenvalues --   -0.61303  -0.60636  -0.60162  -0.59570  -0.58959
 Alpha  occ. eigenvalues --   -0.58810  -0.57370  -0.55807  -0.55285  -0.55022
 Alpha  occ. eigenvalues --   -0.53865  -0.52969  -0.52131  -0.51580  -0.50905
 Alpha  occ. eigenvalues --   -0.50282  -0.49788  -0.49542  -0.47767  -0.47477
 Alpha  occ. eigenvalues --   -0.47149  -0.46859  -0.46335  -0.46233  -0.45998
 Alpha  occ. eigenvalues --   -0.45881  -0.45389  -0.44986  -0.44406  -0.44061
 Alpha  occ. eigenvalues --   -0.44021  -0.43894  -0.43728  -0.43498  -0.43223
 Alpha  occ. eigenvalues --   -0.43000  -0.42635  -0.42627  -0.42336  -0.41823
 Alpha  occ. eigenvalues --   -0.41716  -0.41085  -0.40019  -0.39622  -0.39434
 Alpha  occ. eigenvalues --   -0.39322  -0.38426  -0.38353  -0.38294  -0.38136
 Alpha  occ. eigenvalues --   -0.37962  -0.37914  -0.37268  -0.36744  -0.36529
 Alpha  occ. eigenvalues --   -0.36403  -0.36198  -0.35830  -0.35683  -0.35389
 Alpha  occ. eigenvalues --   -0.35322  -0.35089  -0.34758  -0.34632  -0.33907
 Alpha  occ. eigenvalues --   -0.33444  -0.32851  -0.32590  -0.32084  -0.31945
 Alpha  occ. eigenvalues --   -0.31319  -0.30696  -0.30385  -0.28102  -0.26998
 Alpha  occ. eigenvalues --   -0.26796  -0.26622  -0.26113  -0.25506  -0.25353
 Alpha  occ. eigenvalues --   -0.25200  -0.21910  -0.21417  -0.20068
 Alpha virt. eigenvalues --   -0.09282  -0.07028  -0.02984  -0.02436  -0.02267
 Alpha virt. eigenvalues --   -0.02203  -0.01800  -0.01430  -0.00778  -0.00739
 Alpha virt. eigenvalues --   -0.00448  -0.00329   0.00286   0.00414   0.00963

 Mulliken charges:
               1
     1  C   -0.768095
     2  C   -0.561338
     3  C   -0.481102
     4  C    0.750822
     5  C    0.477842
     6  C   -0.593048
     7  C   -0.354383
     8  C   -0.188242
     9  C   -0.123780
    10  C    0.142736
    11  N   -0.360150
    12  O    0.103911
    13  C   -0.464998
    14  C    0.582669
    15  C   -0.166017
    16  C   -0.398117
    17  C   -0.636073
    18  C    0.260605
    19  C    0.263848
    20  N   -0.091670
    21  C    0.124200
    22  C    0.221352
    23  N   -0.502013
    24  C    0.247737
    25  C   -0.090739
    26  C   -0.176460
    27  C    0.360733
    28  C    0.466702
    29  C    0.213890
    30  C   -0.730160
    31  C   -0.421630
    32  C    0.100054
    33  C    0.460703
    34  C   -0.468179
    35  C   -0.519444
    36  C   -0.508535
    37  C   -0.075682
    38  C    0.054535
    39  C   -0.162846
    40  C   -0.449448
    41  C   -0.829119
    42  C    0.494559
    43  C   -0.267559
    44  C   -0.668263
    45  C    0.047007
    46  C    0.267946
    47  O   -0.319194
    48  H    0.160081
    49  H    0.163401
    50  H    0.158838
    51  H    0.120160
    52  H    0.111509
    53  H    0.128130
    54  H    0.127796
    55  H    0.132326
    56  H    0.173865
    57  H    0.184335
    58  H    0.123639
    59  H    0.122898
    60  H    0.127466
    61  H    0.129289
    62  H    0.342036
    63  H    0.153187
    64  H    0.162577
    65  H    0.126060
    66  H    0.118122
    67  H    0.147078
    68  H    0.150312
    69  H    0.151685
    70  H    0.143825
    71  H    0.149422
    72  H    0.152580
    73  H    0.149600
    74  H    0.144328
    75  H    0.144995
    76  H    0.118209
    77  H    0.138105
    78  H    0.124800
    79  H    0.123004
    80  H    0.161591
    81  H    0.160659
    82  H    0.149358
    83  H    0.155756
    84  H    0.154644
    85  H    0.120901
    86  H    0.127869
 Sum of Mulliken charges =  -0.00000

 Dipole moment (field-independent basis, Debye):
    X=              0.7455    Y=              7.4795    Z=             -0.5986  Tot=              7.5403
 Quadrupole moment (field-independent basis, Debye-Ang):
   XX=           -215.0069   YY=           -269.1203   ZZ=           -275.9218
   XY=             -7.0693   XZ=             -0.3813   YZ=              7.6742

 Normal termination of Gaussian 16 at Wed Aug  6 22:45:35 2025.
