 Gaussian 16, Revision C.02,
 Gaussian 16:  ES64L-G16RevC.02  7-Dec-2021

 ----------------------------------------------------------
 # td=(50-50,nstates=3) b3lyp/6-31+g(d,p) geom=connectivity
 ----------------------------------------------------------

 -------------------
 Title Card Required
 -------------------
 Symbolic Z-matrix:
 Charge =  0 Multiplicity = 1

                         Standard orientation:
 ---------------------------------------------------------------------
 Center     Atomic      Atomic             Coordinates (Angstroms)
 Number     Number       Type             X           Y           Z
 ---------------------------------------------------------------------
      1          6           0        2.683860   -1.588053   -2.258592
      2          6           0        1.743314   -0.880781   -1.259548
      3          6           0        2.080706    0.610859   -1.186959
      4          6           0        1.387200    1.519259   -2.000320
      5          6           0        1.711563    2.878928   -2.001360
      6          6           0        2.740211    3.352973   -1.183424
      7          6           0        3.438791    2.457180   -0.369308
      8          6           0        3.110962    1.099531   -0.371420
      9          6           0        1.691456   -1.548759    0.117123
     10          6           0        2.736823   -2.363763    0.575114
     11          6           0        2.710516   -2.961002    1.836990
     12          6           0        1.622107   -2.758026    2.683879
     13          6           0        0.567976   -1.953644    2.254349
     14          6           0        0.591708   -1.355700    0.986334
     15          6           0       -0.570125   -0.488677    0.620325
     16          6           0       -1.643725   -0.897283   -0.130057
     17          7           0       -1.664368   -2.297444   -0.622582
     18          8           0       -2.137202   -3.138826    0.131313
     19          8           0       -1.213715   -2.500532   -1.745978
     20          6           0       -2.777629   -0.068805   -0.471075
     21         17           0       -4.057194   -0.736266   -1.445900
     22          6           0       -2.859295    1.225329   -0.031960
     23          6           0       -1.783337    1.673215    0.767646
     24          6           0       -0.663189    0.862381    1.106679
     25          7           0        0.188153    1.510753    1.886842
     26          8           0       -0.345976    2.754331    2.070622
     27          7           0       -1.601300    2.864153    1.358740
     28          8           0       -2.234910    3.912133    1.404758
     29          1           0        2.444508   -2.653391   -2.339908
     30          1           0        2.568823   -1.135070   -3.247415
     31          1           0        3.736212   -1.483835   -1.976130
     32          1           0        0.738950   -0.956219   -1.687772
     33          1           0        0.587995    1.157371   -2.643883
     34          1           0        1.160462    3.565166   -2.638476
     35          1           0        2.991723    4.409441   -1.176819
     36          1           0        4.235229    2.816618    0.276112
     37          1           0        3.652201    0.418822    0.279571
     38          1           0        3.591436   -2.542698   -0.067450
     39          1           0        3.540645   -3.586208    2.152731
     40          1           0        1.588021   -3.220559    3.665259
     41          1           0       -0.288683   -1.791228    2.901652
     42          1           0       -3.697551    1.868246   -0.270383
 ---------------------------------------------------------------------

 SCF Done:  E(RB3LYP) =  -1695.70807855     A.U. after   22 cycles

 Excitation energies and oscillator strengths:

 Excited State   1:      Triplet-A      1.2169 eV 1018.82 nm  f=0.0000  <S**2>=2.000
     100 ->103         0.13325
     101 ->103        -0.33670
     102 ->103         0.62285
     101 <-103        -0.11157
     102 <-103         0.20201
 This state for optimization and/or second-order correction.
 Total Energy, E(TD-HF/TD-DFT) =  -1695.66335680
 Copying the excited state density for this state as the 1-particle RhoCI density.

 Excited State   2:      Triplet-A      2.7956 eV  443.50 nm  f=0.0000  <S**2>=2.000
     101 ->103         0.61926
     102 ->103         0.32807

 Excited State   3:      Singlet-A      2.8089 eV  441.40 nm  f=0.0011  <S**2>=0.000
     101 ->103         0.57804
     102 ->103         0.40449

 Excited State   4:      Triplet-A      2.8565 eV  434.04 nm  f=0.0000  <S**2>=2.000
      89 ->104         0.21618
      91 ->104        -0.55056
      92 ->104        -0.27077
      93 ->104        -0.11392
      94 ->104        -0.18539
      97 ->104        -0.10190
      91 <-104        -0.14729

 Excited State   5:      Singlet-A      3.0450 eV  407.17 nm  f=0.0311  <S**2>=0.000
     100 ->103         0.52697
     101 ->103         0.27099
     102 ->103        -0.36203

 Excited State   6:      Singlet-A      3.1320 eV  395.86 nm  f=0.0074  <S**2>=0.000
     100 ->103         0.29840
     101 ->103        -0.10664
     101 ->104        -0.24655
     102 ->103         0.15423
     102 ->104         0.54426

 The electronic state is 1-A.
 Alpha  occ. eigenvalues -- -101.59630 -19.30654 -19.22936 -19.22891 -19.21539
 Alpha  occ. eigenvalues --  -14.61128 -14.57245 -14.43659 -10.31659 -10.30601
 Alpha  occ. eigenvalues --  -10.29433 -10.28627 -10.27626 -10.26620 -10.23373
 Alpha  occ. eigenvalues --  -10.22693 -10.21793 -10.21685 -10.21411 -10.21210
 Alpha  occ. eigenvalues --  -10.21041 -10.21015 -10.20273 -10.20135 -10.20130
 Alpha  occ. eigenvalues --  -10.20030 -10.19864 -10.19104  -9.51067  -7.27525
 Alpha  occ. eigenvalues --   -7.26485  -7.26450  -1.26813  -1.24530  -1.14699
 Alpha  occ. eigenvalues --   -1.09722  -0.96519  -0.92243  -0.91514  -0.89066
 Alpha  occ. eigenvalues --   -0.87142  -0.86473  -0.81933  -0.81593  -0.79414
 Alpha  occ. eigenvalues --   -0.76179  -0.75508  -0.75339  -0.73055  -0.69578
 Alpha  occ. eigenvalues --   -0.67277  -0.66304  -0.65811  -0.61874  -0.61662
 Alpha  occ. eigenvalues --   -0.61171  -0.59949  -0.59073  -0.58075  -0.56401
 Alpha  occ. eigenvalues --   -0.55946  -0.54898  -0.54392  -0.53485  -0.52491
 Alpha  occ. eigenvalues --   -0.51932  -0.49427  -0.49162  -0.48313  -0.47311
 Alpha  occ. eigenvalues --   -0.46676  -0.46289  -0.45433  -0.44926  -0.44386
 Alpha  occ. eigenvalues --   -0.44349  -0.43901  -0.43348  -0.42709  -0.40898
 Alpha  occ. eigenvalues --   -0.39465  -0.39206  -0.38704  -0.38381  -0.38147
 Alpha  occ. eigenvalues --   -0.37312  -0.36410  -0.35779  -0.35648  -0.35440
 Alpha  occ. eigenvalues --   -0.34972  -0.34407  -0.34097  -0.33896  -0.32218
 Alpha  occ. eigenvalues --   -0.32074  -0.30887  -0.27601  -0.27088  -0.26235
 Alpha  occ. eigenvalues --   -0.25329  -0.25103
 Alpha virt. eigenvalues --   -0.12709  -0.11074  -0.04826  -0.04198  -0.03628
 Alpha virt. eigenvalues --   -0.03114  -0.02409  -0.02016  -0.01706  -0.00835
 Alpha virt. eigenvalues --    0.00022   0.00584   0.00987   0.01373   0.01904

 Mulliken charges:
               1
     1  C   -0.543318
     2  C   -0.075796
     3  C    0.754174
     4  C   -0.177271
     5  C    0.032245
     6  C   -0.105051
     7  C   -0.220056
     8  C   -0.593534
     9  C    0.240662
    10  C   -0.431903
    11  C   -0.227857
    12  C    0.061893
    13  C   -0.246201
    14  C    0.019625
    15  C    0.135489
    16  C   -0.026265
    17  N   -0.456092
    18  O    0.099892
    19  O    0.058016
    20  C    0.051023
    21  Cl   0.311266
    22  C    0.570859
    23  C   -0.218047
    24  C   -0.384294
    25  N   -0.381701
    26  O    0.423919
    27  N   -0.657286
    28  O    0.098050
    29  H    0.159942
    30  H    0.155352
    31  H    0.150299
    32  H    0.136765
    33  H    0.107211
    34  H    0.120474
    35  H    0.124435
    36  H    0.122888
    37  H    0.123240
    38  H    0.118899
    39  H    0.130579
    40  H    0.132556
    41  H    0.122228
    42  H    0.182692
 Sum of Mulliken charges =  -0.00000

 Dipole moment (field-independent basis, Debye):
    X=              1.1458    Y=             -0.3829    Z=             -0.1998  Tot=              1.2245
 Quadrupole moment (field-independent basis, Debye-Ang):
   XX=           -160.1289   YY=           -183.1814   ZZ=           -168.2519
   XY=             -6.8657   XZ=              3.3324   YZ=            -12.9239

 Normal termination of Gaussian 16 at Sun Sep 21 23:39:33 2025.
