 Gaussian 16, Revision C.02,
 Gaussian 16:  ES64L-G16RevC.02  7-Dec-2021

 ----------------------------------------------------------
 # td=(50-50,nstates=3) b3lyp/6-31+g(d,p) geom=connectivity
 ----------------------------------------------------------

 -------------------
 Title Card Required
 -------------------
 Symbolic Z-matrix:
 Charge =  0 Multiplicity = 1

                         Standard orientation:
 ---------------------------------------------------------------------
 Center     Atomic      Atomic             Coordinates (Angstroms)
 Number     Number       Type             X           Y           Z
 ---------------------------------------------------------------------
      1          6           0       -4.516510    1.615975    0.000294
      2          6           0       -3.893424    0.215577   -0.000158
      3          6           0       -2.359954    0.243212    0.000091
      4          6           0       -1.754136   -1.166241   -0.000369
      5          6           0       -0.250033   -1.189523   -0.000135
      6          7           0        0.426580   -2.312368    0.000107
      7          8           0        1.774115   -1.884437    0.000103
      8          6           0        1.739705   -0.541729    0.000140
      9          6           0        3.075350    0.134813    0.000323
     10         17           0        2.955839    1.922727   -0.000197
     11          7           0        0.539259   -0.051239   -0.000034
     12          1           0       -5.610543    1.565226    0.000100
     13          1           0       -4.209037    2.185790    0.884939
     14          1           0       -4.208757    2.186486   -0.883805
     15          1           0       -4.247933   -0.341680   -0.878674
     16          1           0       -4.248210   -0.342371    0.877806
     17          1           0       -1.998416    0.796260    0.875552
     18          1           0       -1.998137    0.796950   -0.874816
     19          1           0       -2.104006   -1.727170   -0.876078
     20          1           0       -2.104285   -1.727879    0.874770
     21          1           0        3.639900   -0.164621    0.886245
     22          1           0        3.640390   -0.165116   -0.885117
 ---------------------------------------------------------------------

 SCF Done:  E(RB3LYP) =  -918.291043507     A.U. after   14 cycles

 Excitation energies and oscillator strengths:

 Excited State   1:      Triplet-A      4.1356 eV  299.80 nm  f=0.0000  <S**2>=2.000
      44 -> 47         0.13066
      46 -> 47         0.66833
 This state for optimization and/or second-order correction.
 Total Energy, E(TD-HF/TD-DFT) =  -918.139062854
 Copying the excited state density for this state as the 1-particle RhoCI density.

 Excited State   2:      Triplet-A      5.2868 eV  234.52 nm  f=0.0000  <S**2>=2.000
      43 -> 47        -0.19348
      45 -> 47         0.65415

 Excited State   3:      Triplet-A      5.7135 eV  217.00 nm  f=0.0000  <S**2>=2.000
      37 -> 47         0.11150
      40 -> 47         0.62025
      40 -> 52        -0.11270
      46 -> 52         0.22735
      46 -> 54        -0.13224

 Excited State   4:      Singlet-A      5.7397 eV  216.01 nm  f=0.0035  <S**2>=0.000
      43 -> 47        -0.16455
      45 -> 47         0.68357

 Excited State   5:      Singlet-A      6.3781 eV  194.39 nm  f=0.0794  <S**2>=0.000
      44 -> 47        -0.20598
      46 -> 47         0.65833

 Excited State   6:      Singlet-A      6.5685 eV  188.76 nm  f=0.0003  <S**2>=0.000
      44 -> 48        -0.14652
      46 -> 48         0.67825

 The electronic state is 1-A.
 Alpha  occ. eigenvalues -- -101.56119 -19.26631 -14.40329 -14.36142 -10.31913
 Alpha  occ. eigenvalues --  -10.28852 -10.27411 -10.21170 -10.19209 -10.19100
 Alpha  occ. eigenvalues --  -10.18094  -9.47642  -7.24113  -7.23025  -7.23023
 Alpha  occ. eigenvalues --   -1.18078  -0.95866  -0.90788  -0.86697  -0.81037
 Alpha  occ. eigenvalues --   -0.75382  -0.73500  -0.66767  -0.62520  -0.61168
 Alpha  occ. eigenvalues --   -0.58668  -0.52640  -0.52629  -0.48766  -0.46954
 Alpha  occ. eigenvalues --   -0.46064  -0.44810  -0.43231  -0.43187  -0.42542
 Alpha  occ. eigenvalues --   -0.38480  -0.37167  -0.35756  -0.34717  -0.34057
 Alpha  occ. eigenvalues --   -0.33937  -0.33448  -0.32676  -0.32061  -0.30651
 Alpha  occ. eigenvalues --   -0.29454
 Alpha virt. eigenvalues --   -0.04482  -0.01816  -0.00107   0.01235   0.01976
 Alpha virt. eigenvalues --    0.02117   0.02880   0.03635   0.04358   0.04573
 Alpha virt. eigenvalues --    0.05098   0.06049   0.06598   0.06984   0.07095

 Mulliken charges:
               1
     1  C   -0.651534
     2  C   -0.162971
     3  C   -0.155468
     4  C   -0.455722
     5  C    0.738075
     6  N   -0.469179
     7  O    0.052008
     8  C    0.202714
     9  C   -0.677865
    10  Cl   0.003064
    11  N   -0.230088
    12  H    0.145163
    13  H    0.147828
    14  H    0.147830
    15  H    0.137046
    16  H    0.137046
    17  H    0.154235
    18  H    0.154256
    19  H    0.172173
    20  H    0.172166
    21  H    0.219613
    22  H    0.219609
 Sum of Mulliken charges =  -0.00000

 Dipole moment (field-independent basis, Debye):
    X=             -0.0445    Y=             -0.0328    Z=              0.0004  Tot=              0.0553
 Quadrupole moment (field-independent basis, Debye-Ang):
   XX=            -63.3721   YY=            -85.0499   ZZ=            -72.1144
   XY=             -1.2227   XZ=              0.0027   YZ=              0.0007

 Normal termination of Gaussian 16 at Sun Sep 21 23:47:26 2025.
