 Gaussian 16, Revision C.02,
 Gaussian 16:  ES64L-G16RevC.02  7-Dec-2021

 ----------------------------------------------------------
 # td=(50-50,nstates=3) b3lyp/6-31+g(d,p) geom=connectivity
 ----------------------------------------------------------

 -------------------
 Title Card Required
 -------------------
 Symbolic Z-matrix:
 Charge =  0 Multiplicity = 1

                         Standard orientation:
 ---------------------------------------------------------------------
 Center     Atomic      Atomic             Coordinates (Angstroms)
 Number     Number       Type             X           Y           Z
 ---------------------------------------------------------------------
      1          6           0       -4.820080    0.220223   -1.346736
      2          6           0       -4.139133   -0.123604   -0.241863
      3          6           0       -4.844157   -0.419269    0.978786
      4          7           0       -5.373467   -0.688183    1.980287
      5          6           0       -2.637715   -0.180533   -0.173146
      6          6           0       -1.955821   -1.376549   -0.152502
      7          6           0       -2.738329   -2.689898   -0.248030
      8          6           0       -2.434159   -3.494213   -1.532935
      9          6           0       -2.688274   -3.557340    1.031827
     10          6           0       -0.483435   -1.369156   -0.062814
     11          7           0        0.183599   -2.577527   -0.077495
     12          6           0        0.251684   -0.193062   -0.020910
     13          6           0        1.743103   -0.235507    0.076919
     14          6           0        2.541841   -0.310194   -1.075914
     15          6           0        3.932551   -0.339104   -0.980568
     16          6           0        4.577481   -0.299673    0.265877
     17          6           0        6.095987   -0.306027    0.378112
     18          6           0        6.713113   -1.597232   -0.193966
     19          6           0        6.720148    0.943901   -0.273377
     20          6           0        3.775399   -0.240016    1.413194
     21          6           0        2.381933   -0.209541    1.325281
     22          6           0       -0.445251    1.050838   -0.051598
     23          6           0        0.013054    2.359720   -0.012626
     24          6           0        1.336975    2.847290    0.037028
     25          7           0        2.395761    3.340095    0.073951
     26          6           0       -1.159276    3.298146   -0.033686
     27          6           0       -2.349353    2.382059   -0.099138
     28          6           0       -3.659404    2.914231   -0.130340
     29          7           0       -4.702019    3.439106   -0.157216
     30          6           0       -1.914658    1.070207   -0.113529
     31          1           0       -4.296888    0.451716   -2.268909
     32          1           0       -5.901837    0.297682   -1.343979
     33          1           0       -3.786171   -2.399243   -0.342171
     34          1           0       -3.117772   -4.347697   -1.594717
     35          1           0       -2.590875   -2.874481   -2.421784
     36          1           0       -1.411104   -3.874335   -1.574905
     37          1           0       -3.437371   -4.351916    0.954047
     38          1           0       -2.923702   -2.963051    1.919273
     39          1           0       -1.726469   -4.051423    1.208139
     40          1           0       -0.290547   -3.397303    0.261293
     41          1           0        1.170699   -2.542013    0.138911
     42          1           0        2.067410   -0.332603   -2.053378
     43          1           0        4.520072   -0.381886   -1.893538
     44          1           0        6.335773   -0.273339    1.449071
     45          1           0        7.798427   -1.602548   -0.043325
     46          1           0        6.297537   -2.486832    0.291050
     47          1           0        6.527508   -1.684440   -1.270620
     48          1           0        7.803932    0.958358   -0.111913
     49          1           0        6.296775    1.862411    0.144172
     50          1           0        6.544327    0.957767   -1.354990
     51          1           0        4.246792   -0.203254    2.392253
     52          1           0        1.785086   -0.148395    2.231568
     53          1           0       -1.194251    3.935843    0.861507
     54          1           0       -1.129818    3.982372   -0.893814
 ---------------------------------------------------------------------

 SCF Done:  E(RB3LYP) =  -1224.22562203     A.U. after   18 cycles

 Excitation energies and oscillator strengths:

 Excited State   1:      Triplet-A      0.8101 eV 1530.41 nm  f=0.0000  <S**2>=2.000
     102 ->105        -0.10812
     104 ->105         0.73006
     104 <-105         0.25089
 This state for optimization and/or second-order correction.
 Total Energy, E(TD-HF/TD-DFT) =  -1224.19584998
 Copying the excited state density for this state as the 1-particle RhoCI density.

 Excited State   2:      Singlet-A      2.2568 eV  549.39 nm  f=0.1239  <S**2>=0.000
     104 ->105         0.70449
     104 <-105        -0.10268

 Excited State   3:      Triplet-A      2.4286 eV  510.52 nm  f=0.0000  <S**2>=2.000
     101 ->105         0.45941
     102 ->105         0.48963
     104 ->105         0.12115
     104 ->110         0.10017

 Excited State   4:      Triplet-A      2.9128 eV  425.65 nm  f=0.0000  <S**2>=2.000
      99 ->105         0.22379
     100 ->105         0.27107
     100 ->106         0.18879
     104 ->106         0.48837
     104 ->107        -0.25786

 Excited State   5:      Singlet-A      3.0795 eV  402.61 nm  f=0.0001  <S**2>=0.000
     103 ->105         0.70522

 Excited State   6:      Singlet-A      3.1674 eV  391.44 nm  f=0.0028  <S**2>=0.000
     104 ->106         0.70129

 The electronic state is 1-A.
 Alpha  occ. eigenvalues --  -14.37911 -14.35873 -14.35300 -14.34105 -10.27522
 Alpha  occ. eigenvalues --  -10.26789 -10.25688 -10.25047 -10.25032 -10.24971
 Alpha  occ. eigenvalues --  -10.24936 -10.24651 -10.24360 -10.24250 -10.23979
 Alpha  occ. eigenvalues --  -10.23689 -10.23523 -10.23060 -10.22078 -10.21677
 Alpha  occ. eigenvalues --  -10.21009 -10.20756 -10.20747 -10.20739 -10.20603
 Alpha  occ. eigenvalues --  -10.20314 -10.20299 -10.20272 -10.18661 -10.18155
 Alpha  occ. eigenvalues --   -0.96418  -0.93359  -0.92561  -0.91444  -0.90263
 Alpha  occ. eigenvalues --   -0.87749  -0.87292  -0.83591  -0.82880  -0.80901
 Alpha  occ. eigenvalues --   -0.79438  -0.76236  -0.75924  -0.74914  -0.73155
 Alpha  occ. eigenvalues --   -0.71379  -0.69102  -0.68068  -0.66405  -0.65544
 Alpha  occ. eigenvalues --   -0.64584  -0.62831  -0.61984  -0.60593  -0.57486
 Alpha  occ. eigenvalues --   -0.57215  -0.56373  -0.54212  -0.52139  -0.50412
 Alpha  occ. eigenvalues --   -0.49405  -0.48856  -0.48676  -0.48380  -0.47199
 Alpha  occ. eigenvalues --   -0.46866  -0.46184  -0.45880  -0.44682  -0.44176
 Alpha  occ. eigenvalues --   -0.44050  -0.43791  -0.43052  -0.42520  -0.42116
 Alpha  occ. eigenvalues --   -0.42000  -0.41573  -0.40285  -0.39386  -0.39329
 Alpha  occ. eigenvalues --   -0.38791  -0.38286  -0.37992  -0.37765  -0.37355
 Alpha  occ. eigenvalues --   -0.37095  -0.36782  -0.36687  -0.36475  -0.36232
 Alpha  occ. eigenvalues --   -0.35612  -0.34903  -0.34808  -0.34591  -0.34506
 Alpha  occ. eigenvalues --   -0.33603  -0.33343  -0.32748  -0.30359  -0.29267
 Alpha  occ. eigenvalues --   -0.26869  -0.26478  -0.25688  -0.21491
 Alpha virt. eigenvalues --   -0.12177  -0.07614  -0.03379  -0.02881  -0.02567
 Alpha virt. eigenvalues --   -0.02161  -0.01835  -0.00386  -0.00266   0.00032
 Alpha virt. eigenvalues --    0.00576   0.00880   0.01413   0.01651   0.01833

 Mulliken charges:
               1
     1  C   -0.382115
     2  C    0.225248
     3  C   -0.339697
     4  N   -0.433949
     5  C    0.099283
     6  C    0.595467
     7  C    0.095040
     8  C   -0.567718
     9  C   -0.519632
    10  C    0.137028
    11  N   -0.461981
    12  C   -0.143331
    13  C   -0.300652
    14  C   -0.275286
    15  C   -0.158053
    16  C   -0.108604
    17  C    0.397060
    18  C   -0.549932
    19  C   -0.561263
    20  C    0.055490
    21  C   -0.376498
    22  C    0.613237
    23  C    0.336931
    24  C   -0.355697
    25  N   -0.485846
    26  C   -0.720502
    27  C    0.156978
    28  C   -0.254244
    29  N   -0.487623
    30  C    0.885077
    31  H    0.152629
    32  H    0.168557
    33  H    0.142507
    34  H    0.151031
    35  H    0.149319
    36  H    0.160206
    37  H    0.160517
    38  H    0.176530
    39  H    0.114814
    40  H    0.280241
    41  H    0.331158
    42  H    0.119232
    43  H    0.120206
    44  H    0.117167
    45  H    0.144241
    46  H    0.145335
    47  H    0.145592
    48  H    0.141403
    49  H    0.163665
    50  H    0.145376
    51  H    0.120751
    52  H    0.121542
    53  H    0.208196
    54  H    0.205570
 Sum of Mulliken charges =  -0.00000

 Dipole moment (field-independent basis, Debye):
    X=              3.0057    Y=             -6.2324    Z=             -2.7013  Tot=              7.4279
 Quadrupole moment (field-independent basis, Debye-Ang):
   XX=           -204.3008   YY=           -184.6281   ZZ=           -178.3413
   XY=              3.4440   XZ=             19.8242   YZ=             -0.2530

 Normal termination of Gaussian 16 at Wed Aug  6 22:28:52 2025.
