 Gaussian 16, Revision C.02,
 Gaussian 16:  ES64L-G16RevC.02  7-Dec-2021

 ----------------------------------------------------------
 # td=(50-50,nstates=3) b3lyp/6-31+g(d,p) geom=connectivity
 ----------------------------------------------------------

 -------------------
 Title Card Required
 -------------------
 Symbolic Z-matrix:
 Charge =  0 Multiplicity = 1

                         Standard orientation:
 ---------------------------------------------------------------------
 Center     Atomic      Atomic             Coordinates (Angstroms)
 Number     Number       Type             X           Y           Z
 ---------------------------------------------------------------------
      1          6           0       -4.470813   -1.981054   -0.787419
      2          8           0       -3.249030   -1.208832   -0.842478
      3          6           0       -2.853646   -0.656392    0.307524
      4          8           0       -3.480574   -0.655625    1.343578
      5          6           0       -1.515806    0.024785    0.151037
      6          6           0       -1.399113    1.418684    0.047464
      7          6           0       -2.560278    2.357523    0.035570
      8          7           0       -0.168514    1.986474   -0.061269
      9          8           0       -0.034099    3.260034   -0.170739
     10          6           0        0.962797    1.163351   -0.053564
     11          6           0        2.245878    1.732439   -0.160730
     12          6           0        3.358938    0.916482   -0.148556
     13          6           0        3.205122   -0.483523   -0.027305
     14         17           0        4.637034   -1.489030   -0.014720
     15          6           0        1.959942   -1.068819    0.080670
     16          6           0        0.827380   -0.235487    0.065658
     17          7           0       -0.446868   -0.804904    0.169785
     18          8           0       -0.583009   -2.074835    0.293746
     19          1           0       -4.621820   -2.347798   -1.801284
     20          1           0       -4.349871   -2.810083   -0.087226
     21          1           0       -5.303859   -1.349563   -0.471417
     22          1           0       -3.503871    1.825683    0.152115
     23          1           0       -2.453993    3.086467    0.845546
     24          1           0       -2.566476    2.930824   -0.897542
     25          1           0        2.319743    2.809022   -0.250331
     26          1           0        4.352900    1.341370   -0.230278
     27          1           0        1.816622   -2.137263    0.176109
 ---------------------------------------------------------------------

 SCF Done:  E(RB3LYP) =  -1295.12168823     A.U. after   17 cycles

 Excitation energies and oscillator strengths:

 Excited State   1:      Triplet-A      0.9732 eV 1273.99 nm  f=0.0000  <S**2>=2.000
      69 -> 70         0.74415
      69 -> 72         0.13214
      69 -> 73         0.10081
      69 <- 70         0.29138
 This state for optimization and/or second-order correction.
 Total Energy, E(TD-HF/TD-DFT) =  -1295.08592388
 Copying the excited state density for this state as the 1-particle RhoCI density.

 Excited State   2:      Triplet-A      3.0846 eV  401.94 nm  f=0.0000  <S**2>=2.000
      64 -> 70         0.11340
      65 -> 70         0.11642
      69 -> 71         0.66718

 Excited State   3:      Singlet-A      3.1079 eV  398.94 nm  f=0.1079  <S**2>=0.000
      69 -> 70         0.67716
      69 -> 72        -0.14722
      69 -> 73        -0.10980
      69 <- 70        -0.10532

 Excited State   4:      Triplet-A      3.2670 eV  379.51 nm  f=0.0000  <S**2>=2.000
      67 -> 70         0.50692
      68 -> 70        -0.46857

 Excited State   5:      Singlet-A      3.5165 eV  352.57 nm  f=0.0277  <S**2>=0.000
      65 -> 70        -0.10298
      68 -> 70        -0.29922
      69 -> 71         0.62079

 Excited State   6:      Singlet-A      3.5453 eV  349.71 nm  f=0.0044  <S**2>=0.000
      67 -> 70         0.52344
      68 -> 70        -0.41966
      69 -> 71        -0.17532

 The electronic state is 1-A.
 Alpha  occ. eigenvalues -- -101.57827 -19.22979 -19.17739 -19.16122 -19.15833
 Alpha  occ. eigenvalues --  -14.51591 -14.50891 -10.35844 -10.29297 -10.28764
 Alpha  occ. eigenvalues --  -10.28698 -10.28626 -10.28363 -10.26164 -10.24444
 Alpha  occ. eigenvalues --  -10.24143 -10.24085 -10.21645  -9.49322  -7.25745
 Alpha  occ. eigenvalues --   -7.24758  -7.24711  -1.15098  -1.13789  -1.13159
 Alpha  occ. eigenvalues --   -1.05254  -0.95671  -0.92376  -0.88046  -0.87080
 Alpha  occ. eigenvalues --   -0.82247  -0.80908  -0.76702  -0.74656  -0.71849
 Alpha  occ. eigenvalues --   -0.67070  -0.64674  -0.62748  -0.61267  -0.57448
 Alpha  occ. eigenvalues --   -0.55489  -0.53104  -0.52702  -0.50957  -0.50199
 Alpha  occ. eigenvalues --   -0.49996  -0.49383  -0.48348  -0.48190  -0.47808
 Alpha  occ. eigenvalues --   -0.45083  -0.44530  -0.43699  -0.42693  -0.42573
 Alpha  occ. eigenvalues --   -0.41808  -0.41267  -0.40335  -0.38622  -0.36033
 Alpha  occ. eigenvalues --   -0.33969  -0.33443  -0.32440  -0.30432  -0.30027
 Alpha  occ. eigenvalues --   -0.28873  -0.28499  -0.28411  -0.22662
 Alpha virt. eigenvalues --   -0.11122  -0.06922  -0.03565  -0.03057  -0.00747
 Alpha virt. eigenvalues --   -0.00508   0.00221   0.00936   0.01708   0.02117
 Alpha virt. eigenvalues --    0.02694   0.03395   0.04129   0.04213   0.04951

 Mulliken charges:
               1
     1  C   -0.183070
     2  O   -0.183859
     3  C   -0.004914
     4  O   -0.378752
     5  C    0.298455
     6  C    0.795947
     7  C   -0.727429
     8  N   -0.499333
     9  O    0.048084
    10  C    0.190542
    11  C   -0.625573
    12  C   -0.097252
    13  C    0.290596
    14  Cl   0.280401
    15  C   -0.428992
    16  C    0.047455
    17  N   -0.463428
    18  O    0.071264
    19  H    0.156097
    20  H    0.173373
    21  H    0.164070
    22  H    0.156628
    23  H    0.192780
    24  H    0.188972
    25  H    0.185928
    26  H    0.158912
    27  H    0.193100
 Sum of Mulliken charges =  -0.00000

 Dipole moment (field-independent basis, Debye):
    X=             -0.6710    Y=              0.4073    Z=             -1.9043  Tot=              2.0597
 Quadrupole moment (field-independent basis, Debye-Ang):
   XX=            -93.5976   YY=           -119.9646   ZZ=           -114.7043
   XY=              4.9041   XZ=              8.0792   YZ=              3.4304

 Normal termination of Gaussian 16 at Sun Sep 21 23:53:03 2025.
