 Gaussian 16, Revision C.02,
 Gaussian 16:  ES64L-G16RevC.02  7-Dec-2021

 ----------------------------------------------------------
 # td=(50-50,nstates=3) b3lyp/6-31+g(d,p) geom=connectivity
 ----------------------------------------------------------

 -------------------
 Title Card Required
 -------------------
 Symbolic Z-matrix:
 Charge =  0 Multiplicity = 1

                         Standard orientation:
 ---------------------------------------------------------------------
 Center     Atomic      Atomic             Coordinates (Angstroms)
 Number     Number       Type             X           Y           Z
 ---------------------------------------------------------------------
      1          6           0        5.356159    0.612149   -0.298477
      2          6           0        4.442008   -0.171962    0.300728
      3          6           0        4.798919   -0.930444    1.473839
      4          7           0        5.074138   -1.530774    2.431366
      5          6           0        3.051180   -0.319398   -0.177408
      6          6           0        2.066710    0.573137   -0.384495
      7          6           0        2.136501    2.071421   -0.172201
      8          6           0        1.526245    2.846733   -1.355866
      9          6           0        1.522608    2.521519    1.173294
     10          6           0        0.877573   -0.203644   -0.923982
     11          6           0       -0.471488   -0.048092   -0.199635
     12          8           0       -1.481986   -0.520887   -1.073556
     13          6           0       -2.711210   -0.885322   -0.454294
     14          6           0       -3.406628    0.344760    0.120603
     15         35           0       -5.294813    0.006665    0.529950
     16          6           0        1.376886   -1.651606   -0.892836
     17          8           0        0.812668   -2.672827   -1.169710
     18          8           0        2.688156   -1.642889   -0.445135
     19          1           0        5.109774    1.160369   -1.201033
     20          1           0        6.360324    0.709356    0.099542
     21          1           0        3.198417    2.334070   -0.123323
     22          1           0        1.662128    3.923506   -1.212250
     23          1           0        2.000122    2.570824   -2.303906
     24          1           0        0.450389    2.662018   -1.452321
     25          1           0        1.704954    3.591206    1.324086
     26          1           0        1.970603    1.980083    2.011997
     27          1           0        0.439999    2.366668    1.210402
     28          1           0        0.689141    0.060056   -1.974897
     29          1           0       -0.635089    1.008396    0.042296
     30          1           0       -0.470452   -0.616453    0.742981
     31          1           0       -3.315261   -1.329795   -1.247741
     32          1           0       -2.544306   -1.643609    0.323634
     33          1           0       -2.959740    0.687898    1.053711
     34          1           0       -3.404987    1.154873   -0.609401
 ---------------------------------------------------------------------

 SCF Done:  E(RB3LYP) =  -3357.15290848     A.U. after   16 cycles

 Excitation energies and oscillator strengths:

 Excited State   1:      Triplet-A      2.8890 eV  429.16 nm  f=0.0000  <S**2>=2.000
      75 -> 81         0.30822
      76 -> 81         0.13584
      80 -> 81         0.57404
      80 -> 82         0.13200
 This state for optimization and/or second-order correction.
 Total Energy, E(TD-HF/TD-DFT) =  -3357.04673928
 Copying the excited state density for this state as the 1-particle RhoCI density.

 Excited State   2:      Triplet-A      3.5667 eV  347.61 nm  f=0.0000  <S**2>=2.000
      75 -> 81         0.44325
      76 -> 81         0.22595
      77 -> 81         0.12794
      80 -> 81        -0.19405
      80 -> 82        -0.34975
      80 -> 83         0.10954
      80 -> 85         0.11346

 Excited State   3:      Singlet-A      4.0025 eV  309.77 nm  f=0.0666  <S**2>=0.000
      80 -> 81         0.69404

 Excited State   4:      Triplet-A      4.3655 eV  284.01 nm  f=0.0000  <S**2>=2.000
      75 -> 81         0.22449
      76 -> 81         0.12120
      80 -> 81        -0.34263
      80 -> 82         0.49743
      80 -> 83        -0.12123

 Excited State   5:      Singlet-A      4.6711 eV  265.43 nm  f=0.0043  <S**2>=0.000
      77 -> 81        -0.20866
      79 -> 81         0.65863

 Excited State   6:      Singlet-A      5.0662 eV  244.73 nm  f=0.0092  <S**2>=0.000
      76 -> 81         0.21612
      77 -> 81         0.52515
      77 -> 82         0.13933
      79 -> 81         0.23787
      79 -> 82        -0.11697
      80 -> 82         0.23684

 The electronic state is 1-A.
 Alpha  occ. eigenvalues -- -482.92728 -61.88786 -56.40440 -56.40064 -56.40050
 Alpha  occ. eigenvalues --  -19.23073 -19.18651 -19.16898 -14.36253 -10.34293
 Alpha  occ. eigenvalues --  -10.29008 -10.27956 -10.27474 -10.26282 -10.25875
 Alpha  occ. eigenvalues --  -10.25348 -10.25057 -10.24519 -10.23564 -10.23479
 Alpha  occ. eigenvalues --  -10.20857 -10.20638  -8.59379  -6.54603  -6.53339
 Alpha  occ. eigenvalues --   -6.53316  -2.66150  -2.65799  -2.65780  -2.64772
 Alpha  occ. eigenvalues --   -2.64772  -1.13945  -1.06785  -1.05889  -0.92954
 Alpha  occ. eigenvalues --   -0.87525  -0.85389  -0.83184  -0.81080  -0.76670
 Alpha  occ. eigenvalues --   -0.73765  -0.71548  -0.70384  -0.67363  -0.64565
 Alpha  occ. eigenvalues --   -0.62902  -0.60670  -0.58625  -0.56178  -0.52879
 Alpha  occ. eigenvalues --   -0.51572  -0.50983  -0.50180  -0.48664  -0.48001
 Alpha  occ. eigenvalues --   -0.46791  -0.46452  -0.45292  -0.44883  -0.43988
 Alpha  occ. eigenvalues --   -0.42940  -0.42380  -0.41571  -0.40557  -0.40293
 Alpha  occ. eigenvalues --   -0.39953  -0.38622  -0.38293  -0.38027  -0.37558
 Alpha  occ. eigenvalues --   -0.37008  -0.36192  -0.35354  -0.34714  -0.31341
 Alpha  occ. eigenvalues --   -0.30716  -0.29480  -0.28987  -0.27956  -0.26214
 Alpha virt. eigenvalues --   -0.08899  -0.04464  -0.03065  -0.01780  -0.01020
 Alpha virt. eigenvalues --   -0.00684   0.00401   0.00782   0.01011   0.01620
 Alpha virt. eigenvalues --    0.02146   0.02410   0.02965   0.03680   0.03925

 Mulliken charges:
               1
     1  C   -0.295044
     2  C    0.143051
     3  C    0.037459
     4  N   -0.495183
     5  C    0.645706
     6  C   -0.598258
     7  C    0.301212
     8  C   -0.547006
     9  C   -0.599494
    10  C    0.099115
    11  C   -0.362518
    12  O   -0.274487
    13  C    0.072272
    14  C   -0.333650
    15  Br  -0.072405
    16  C    0.459749
    17  O   -0.436949
    18  O   -0.241333
    19  H    0.156838
    20  H    0.169617
    21  H    0.127593
    22  H    0.152376
    23  H    0.151954
    24  H    0.154671
    25  H    0.152656
    26  H    0.158890
    27  H    0.136243
    28  H    0.202281
    29  H    0.120503
    30  H    0.133099
    31  H    0.161711
    32  H    0.149954
    33  H    0.178038
    34  H    0.191340
 Sum of Mulliken charges =  -0.00000

 Dipole moment (field-independent basis, Debye):
    X=              1.1631    Y=              6.9431    Z=             -1.8336  Tot=              7.2748
 Quadrupole moment (field-independent basis, Debye-Ang):
   XX=           -130.0567   YY=           -130.9514   ZZ=           -129.8130
   XY=             19.3067   XZ=            -14.8556   YZ=             -0.2387

 Normal termination of Gaussian 16 at Wed Aug  6 22:51:17 2025.
