 Gaussian 16, Revision C.02,
 Gaussian 16:  ES64L-G16RevC.02  7-Dec-2021

 ----------------------------------------------------------
 # td=(50-50,nstates=3) b3lyp/6-31+g(d,p) geom=connectivity
 ----------------------------------------------------------

 -------------------
 Title Card Required
 -------------------
 Symbolic Z-matrix:
 Charge =  0 Multiplicity = 1

                         Standard orientation:
 ---------------------------------------------------------------------
 Center     Atomic      Atomic             Coordinates (Angstroms)
 Number     Number       Type             X           Y           Z
 ---------------------------------------------------------------------
      1          6           0        3.668292   -1.071714    1.355165
      2          8           0        2.954476   -1.528740    0.192562
      3          6           0        1.641473   -1.137745    0.107310
      4          6           0        0.639088   -2.105503    0.194240
      5          6           0       -0.699360   -1.743415    0.047347
      6          6           0       -1.049799   -0.410206   -0.169915
      7          6           0       -2.507438    0.046664   -0.314867
      8          6           0       -3.404574   -1.026799   -0.777406
      9          7           0       -4.103741   -1.869378   -1.160371
     10          6           0       -3.018476    0.631397    0.944301
     11          7           0       -3.381107    1.117246    1.933685
     12          6           0       -0.047900    0.571840   -0.261805
     13          8           0       -0.427681    1.857688   -0.548255
     14          6           0       -0.101480    2.872154    0.427235
     15          6           0        1.305125    0.204884   -0.154091
     16          8           0        2.281810    1.164201   -0.281465
     17          6           0        2.941606    1.176028   -1.562460
     18          1           0        4.680168   -1.468143    1.258711
     19          1           0        3.696665    0.020876    1.396698
     20          1           0        3.204244   -1.469897    2.265295
     21          1           0        0.924825   -3.136856    0.370396
     22          1           0       -1.471533   -2.503950    0.104654
     23          1           0       -2.539721    0.849091   -1.063637
     24          1           0       -0.514367    3.800521    0.030625
     25          1           0       -0.576798    2.638783    1.385754
     26          1           0        0.980004    2.959364    0.547077
     27          1           0        3.687059    1.971157   -1.509474
     28          1           0        3.432642    0.216668   -1.753201
     29          1           0        2.222571    1.396602   -2.359146
 ---------------------------------------------------------------------

 SCF Done:  E(RB3LYP) =  -799.624584919     A.U. after   16 cycles

 Excitation energies and oscillator strengths:

 Excited State   1:      Triplet-A      3.5781 eV  346.51 nm  f=0.0000  <S**2>=2.000
      60 -> 62         0.48415
      61 -> 63         0.44920
 This state for optimization and/or second-order correction.
 Total Energy, E(TD-HF/TD-DFT) =  -799.493091176
 Copying the excited state density for this state as the 1-particle RhoCI density.

 Excited State   2:      Triplet-A      4.3403 eV  285.66 nm  f=0.0000  <S**2>=2.000
      60 -> 63         0.34140
      61 -> 62         0.57289
      61 -> 63         0.12033

 Excited State   3:      Triplet-A      4.3603 eV  284.35 nm  f=0.0000  <S**2>=2.000
      60 -> 62        -0.46841
      61 -> 62        -0.15908
      61 -> 63         0.47526

 Excited State   4:      Singlet-A      4.9259 eV  251.70 nm  f=0.0040  <S**2>=0.000
      60 -> 63        -0.43717
      61 -> 62         0.54162

 Excited State   5:      Singlet-A      5.3765 eV  230.60 nm  f=0.0119  <S**2>=0.000
      60 -> 62         0.48497
      61 -> 63         0.48575

 Excited State   6:      Singlet-A      5.6392 eV  219.86 nm  f=0.1014  <S**2>=0.000
      59 -> 62         0.51177
      60 -> 62        -0.10066
      60 -> 63         0.29832
      61 -> 62         0.24554
      61 -> 63         0.15686
      61 -> 64         0.16748

 The electronic state is 1-A.
 Alpha  occ. eigenvalues --  -19.20206 -19.19758 -19.19395 -14.36910 -14.36666
 Alpha  occ. eigenvalues --  -10.30587 -10.28052 -10.27406 -10.27241 -10.26247
 Alpha  occ. eigenvalues --  -10.26078 -10.25419 -10.25114 -10.25099 -10.24227
 Alpha  occ. eigenvalues --  -10.22475 -10.21619  -1.09467  -1.07904  -1.06416
 Alpha  occ. eigenvalues --   -0.94439  -0.92952  -0.89013  -0.84271  -0.78253
 Alpha  occ. eigenvalues --   -0.76930  -0.73298  -0.70367  -0.69817  -0.63315
 Alpha  occ. eigenvalues --   -0.62492  -0.59305  -0.55717  -0.55122  -0.53724
 Alpha  occ. eigenvalues --   -0.51564  -0.50502  -0.49676  -0.49280  -0.47743
 Alpha  occ. eigenvalues --   -0.47456  -0.46178  -0.45544  -0.44494  -0.42872
 Alpha  occ. eigenvalues --   -0.41635  -0.39667  -0.39338  -0.38905  -0.37950
 Alpha  occ. eigenvalues --   -0.37377  -0.36844  -0.36517  -0.35715  -0.35319
 Alpha  occ. eigenvalues --   -0.34720  -0.32665  -0.31334  -0.29080  -0.26242
 Alpha  occ. eigenvalues --   -0.26002
 Alpha virt. eigenvalues --   -0.04243  -0.03810  -0.01752  -0.01425  -0.00409
 Alpha virt. eigenvalues --    0.00361   0.00780   0.01020   0.01538   0.01761
 Alpha virt. eigenvalues --    0.02119   0.03153   0.03408   0.03677   0.03844

 Mulliken charges:
               1
     1  C   -0.128584
     2  O   -0.361464
     3  C   -0.009723
     4  C   -0.144092
     5  C   -0.563431
     6  C    0.632925
     7  C    0.553993
     8  C    0.127029
     9  N   -0.453068
    10  C   -0.097812
    11  N   -0.415842
    12  C    0.053084
    13  O   -0.358269
    14  C   -0.101258
    15  C   -0.169223
    16  O   -0.391995
    17  C   -0.115233
    18  H    0.149553
    19  H    0.165676
    20  H    0.143005
    21  H    0.146179
    22  H    0.147796
    23  H    0.246510
    24  H    0.148520
    25  H    0.158023
    26  H    0.172745
    27  H    0.148775
    28  H    0.165358
    29  H    0.150823
 Sum of Mulliken charges =  -0.00000

 Dipole moment (field-independent basis, Debye):
    X=              5.7106    Y=              1.7596    Z=             -0.7075  Tot=              6.0173
 Quadrupole moment (field-independent basis, Debye-Ang):
   XX=           -113.1441   YY=            -98.6262   ZZ=           -104.0060
   XY=             -3.3209   XZ=              4.9874   YZ=             -8.4326

 Normal termination of Gaussian 16 at Wed Aug  6 22:53:38 2025.
