 Gaussian 16, Revision C.02,
 Gaussian 16:  ES64L-G16RevC.02  7-Dec-2021

 ----------------------------------------------------------
 # td=(50-50,nstates=3) b3lyp/6-31+g(d,p) geom=connectivity
 ----------------------------------------------------------

 -------------------
 Title Card Required
 -------------------
 Symbolic Z-matrix:
 Charge =  0 Multiplicity = 1

                         Standard orientation:
 ---------------------------------------------------------------------
 Center     Atomic      Atomic             Coordinates (Angstroms)
 Number     Number       Type             X           Y           Z
 ---------------------------------------------------------------------
      1          6           0        3.490915    0.406630   -2.436289
      2          6           0        3.858180   -0.454779   -1.249660
      3          6           0        5.082955   -1.138150   -1.234171
      4          6           0        5.444722   -1.973262   -0.178435
      5          6           0        4.577155   -2.155712    0.895130
      6          6           0        3.366636   -1.468843    0.899549
      7          7           0        2.478231   -1.692442    2.064576
      8          8           0        1.524039   -0.929608    2.223157
      9          8           0        2.750604   -2.627695    2.814145
     10          6           0        2.985889   -0.609624   -0.148948
     11          6           0        1.689249    0.092739   -0.158087
     12          8           0        0.584163   -0.660251   -0.454517
     13          6           0       -0.507840    0.177288   -0.377941
     14          6           0       -1.739631   -0.417553   -0.287095
     15          8           0       -2.832414    0.328480    0.068931
     16          6           0       -3.916501   -0.501035    0.146687
     17          6           0       -5.142422    0.001656    0.521831
     18          6           0       -6.256570   -0.883479    0.605564
     19          7           0       -7.151509   -1.626798    0.665094
     20          6           0       -5.322398    1.372719    0.857772
     21          7           0       -5.470831    2.489039    1.154393
     22          6           0       -3.513527   -1.831393   -0.183348
     23          6           0       -2.173018   -1.786209   -0.436910
     24         35           0       -1.111596   -3.236392   -0.929833
     25          6           0       -0.054411    1.550338   -0.225328
     26          6           0       -0.799837    2.710846   -0.414915
     27          6           0       -0.318466    4.015414   -0.090850
     28          7           0       -0.018380    5.113073    0.160136
     29          6           0       -2.050412    2.703785   -1.097532
     30          7           0       -3.029788    2.725049   -1.729084
     31          6           0        1.365878    1.399879    0.011961
     32         35           0        2.618151    2.719490    0.446193
     33          1           0        4.224926    0.284982   -3.236035
     34          1           0        2.509094    0.138744   -2.839346
     35          1           0        3.459863    1.468010   -2.168672
     36          1           0        5.758616   -1.016657   -2.075682
     37          1           0        6.398495   -2.490550   -0.194585
     38          1           0        4.818891   -2.810010    1.722811
     39          1           0       -4.163790   -2.693328   -0.214527
 ---------------------------------------------------------------------

 SCF Done:  E(RB3LYP) =  -6522.36479357     A.U. after   18 cycles

 Excitation energies and oscillator strengths:

 Excited State   1:      Triplet-A      0.6056 eV 2047.45 nm  f=0.0000  <S**2>=2.000
     134 ->136         0.10151
     134 ->138         0.10161
     135 ->136         0.75429
     135 <-136         0.30261
 This state for optimization and/or second-order correction.
 Total Energy, E(TD-HF/TD-DFT) =  -6522.34253989
 Copying the excited state density for this state as the 1-particle RhoCI density.

 Excited State   2:      Triplet-A      1.7645 eV  702.66 nm  f=0.0000  <S**2>=2.000
     132 ->136        -0.10467
     134 ->136         0.66404
     135 ->138         0.18439

 Excited State   3:      Singlet-A      2.1190 eV  585.12 nm  f=0.2003  <S**2>=0.000
     134 ->136        -0.21679
     135 ->136         0.67896
     135 <-136        -0.13039

 Excited State   4:      Triplet-A      2.5453 eV  487.10 nm  f=0.0000  <S**2>=2.000
     125 ->137         0.10339
     134 ->137        -0.14975
     135 ->137         0.67418

 Excited State   5:      Singlet-A      2.5835 eV  479.91 nm  f=0.0028  <S**2>=0.000
     134 ->137        -0.10833
     135 ->137         0.69542

 Excited State   6:      Singlet-A      2.7119 eV  457.19 nm  f=0.4346  <S**2>=0.000
     134 ->136         0.64790
     135 ->136         0.23458
     135 ->138        -0.15338

 The electronic state is 1-A.
 Alpha  occ. eigenvalues -- -482.99398-482.98080 -61.95198 -61.93816 -56.46715
 Alpha  occ. eigenvalues --  -56.46296 -56.46271 -56.45293 -56.44887 -56.44851
 Alpha  occ. eigenvalues --  -19.28695 -19.27907 -19.22779 -19.22686 -14.61495
 Alpha  occ. eigenvalues --  -14.37503 -14.36931 -14.36860 -14.36715 -10.34370
 Alpha  occ. eigenvalues --  -10.34246 -10.33538 -10.33036 -10.32489 -10.30280
 Alpha  occ. eigenvalues --  -10.30257 -10.30191 -10.30019 -10.29510 -10.28030
 Alpha  occ. eigenvalues --  -10.27498 -10.27016 -10.26918 -10.26238 -10.26200
 Alpha  occ. eigenvalues --  -10.26113 -10.25700 -10.25556 -10.25409 -10.22986
 Alpha  occ. eigenvalues --   -8.65388  -8.63903  -6.60627  -6.59263  -6.59152
 Alpha  occ. eigenvalues --   -6.59122  -6.57725  -6.57688  -2.72159  -2.71783
 Alpha  occ. eigenvalues --   -2.71697  -2.70650  -2.70608  -2.70606  -2.70249
 Alpha  occ. eigenvalues --   -2.70221  -2.69105  -2.69105  -1.26830  -1.19238
 Alpha  occ. eigenvalues --   -1.17979  -1.09570  -0.94853  -0.94643  -0.94102
 Alpha  occ. eigenvalues --   -0.93103  -0.92778  -0.91691  -0.90985  -0.89495
 Alpha  occ. eigenvalues --   -0.86811  -0.85630  -0.83640  -0.82713  -0.82528
 Alpha  occ. eigenvalues --   -0.79921  -0.77616  -0.74300  -0.73691  -0.69261
 Alpha  occ. eigenvalues --   -0.68651  -0.66581  -0.64701  -0.63854  -0.63258
 Alpha  occ. eigenvalues --   -0.61997  -0.59909  -0.59156  -0.58601  -0.57580
 Alpha  occ. eigenvalues --   -0.57259  -0.55599  -0.54801  -0.54492  -0.53397
 Alpha  occ. eigenvalues --   -0.53028  -0.50899  -0.50384  -0.49916  -0.47456
 Alpha  occ. eigenvalues --   -0.47131  -0.46933  -0.46200  -0.45750  -0.44888
 Alpha  occ. eigenvalues --   -0.44010  -0.43267  -0.43122  -0.42343  -0.41839
 Alpha  occ. eigenvalues --   -0.40781  -0.40545  -0.39759  -0.39417  -0.38961
 Alpha  occ. eigenvalues --   -0.38724  -0.38365  -0.37426  -0.37306  -0.36825
 Alpha  occ. eigenvalues --   -0.36412  -0.36067  -0.35744  -0.35555  -0.35181
 Alpha  occ. eigenvalues --   -0.34724  -0.34068  -0.33603  -0.33019  -0.32554
 Alpha  occ. eigenvalues --   -0.32073  -0.31703  -0.30842  -0.27947  -0.24894
 Alpha virt. eigenvalues --   -0.16930  -0.13461  -0.09717  -0.07828  -0.05482
 Alpha virt. eigenvalues --   -0.04771  -0.04293  -0.03593  -0.03004  -0.02642
 Alpha virt. eigenvalues --   -0.02434  -0.01858  -0.01647  -0.00956   0.00135

 Mulliken charges:
               1
     1  C   -0.462668
     2  C    0.510303
     3  C   -0.267721
     4  C   -0.163794
     5  C   -0.411614
     6  C    0.267840
     7  N   -0.281060
     8  O    0.007848
     9  O    0.043697
    10  C    0.195069
    11  C   -0.449929
    12  O   -0.108662
    13  C   -0.035680
    14  C   -0.125135
    15  O   -0.267335
    16  C    0.700894
    17  C    0.724954
    18  C   -0.105826
    19  N   -0.487738
    20  C   -0.550938
    21  N   -0.422705
    22  C    0.185839
    23  C    0.052463
    24  Br   0.143083
    25  C    1.320374
    26  C    0.681503
    27  C   -0.101002
    28  N   -0.453391
    29  C   -0.693857
    30  N   -0.383864
    31  C   -0.441580
    32  Br   0.191968
    33  H    0.154603
    34  H    0.173300
    35  H    0.190335
    36  H    0.142979
    37  H    0.150202
    38  H    0.179102
    39  H    0.198146
 Sum of Mulliken charges =  -0.00000

 Dipole moment (field-independent basis, Debye):
    X=             11.6067    Y=             -7.6217    Z=             -4.2315  Tot=             14.5159
 Quadrupole moment (field-independent basis, Debye-Ang):
   XX=           -220.7434   YY=           -237.4244   ZZ=           -213.0253
   XY=              7.0160   XZ=             -7.0096   YZ=              5.9698

 Normal termination of Gaussian 16 at Wed Aug  6 22:48:38 2025.
