 Gaussian 16, Revision C.02,
 Gaussian 16:  ES64L-G16RevC.02  7-Dec-2021

 ----------------------------------------------------------
 # td=(50-50,nstates=3) b3lyp/6-31+g(d,p) geom=connectivity
 ----------------------------------------------------------

 -------------------
 Title Card Required
 -------------------
 Symbolic Z-matrix:
 Charge =  0 Multiplicity = 1

                         Standard orientation:
 ---------------------------------------------------------------------
 Center     Atomic      Atomic             Coordinates (Angstroms)
 Number     Number       Type             X           Y           Z
 ---------------------------------------------------------------------
      1          6           0        2.287329   -3.900896   -0.920543
      2          6           0        2.179012   -2.391099   -1.089155
      3          8           0        0.897905   -1.968273   -0.707827
      4          6           0        0.860717   -0.577945   -0.884481
      5          6           0        1.908065    0.061478   -0.027092
      6          6           0        1.885176   -0.098919    1.398242
      7          6           0        2.827025    0.477837    2.151843
      8          8           0        3.860909    1.242442    1.683803
      9          6           0        3.949348    1.448206    0.261460
     10          8           0        4.830769    2.109880   -0.233131
     11          6           0        2.884197    0.793985   -0.574366
     12          6           0       -0.488200   -0.060293   -0.492824
     13          6           0       -1.464040   -0.892247   -0.045039
     14          7           0       -1.223167   -2.114590    0.028723
     15          8           0       -0.725871   -2.618753    1.130845
     16          8           0       -1.467641   -2.893394   -0.995804
     17          6           0       -2.785874   -0.410969    0.353871
     18         17           0       -3.942587   -1.546681    0.925944
     19          6           0       -3.133593    0.901213    0.289027
     20          6           0       -2.124735    1.822273   -0.194029
     21          6           0       -0.810586    1.352956   -0.574950
     22          7           0       -0.167361    2.400145   -0.941004
     23          8           0       -0.886987    3.510082   -0.853871
     24          7           0       -2.069353    3.125012   -0.402139
     25          8           0       -3.074721    3.945990   -0.185175
     26          1           0        3.304416   -4.236519   -1.223331
     27          1           0        2.111063   -4.168075    0.145406
     28          1           0        1.526075   -4.400941   -1.560142
     29          1           0        2.355321   -2.123861   -2.155171
     30          1           0        2.940309   -1.890995   -0.449623
     31          1           0        1.055297   -0.334579   -1.953003
     32          1           0        1.092225   -0.696679    1.871408
     33          1           0        2.765648    0.324807    3.239470
     34          1           0        2.908376    0.921579   -1.666681
     35          1           0       -4.133551    1.247600    0.589054
 ---------------------------------------------------------------------

 SCF Done:  E(RB3LYP) =  -1690.17605938     A.U. after   18 cycles

 Excitation energies and oscillator strengths:

 Excited State   1:      Triplet-A      1.0079 eV 1230.10 nm  f=0.0000  <S**2>=2.000
      84 -> 95        -0.14005
      86 -> 95        -0.43862
      87 -> 95        -0.43330
      88 -> 95        -0.12044
      90 -> 95         0.11732
      91 -> 95         0.34073
      92 -> 95         0.36773
      86 <- 95        -0.25416
      87 <- 95        -0.24806
      91 <- 95         0.16292
      92 <- 95         0.16359
 This state for optimization and/or second-order correction.
 Total Energy, E(TD-HF/TD-DFT) =  -1690.13901888
 Copying the excited state density for this state as the 1-particle RhoCI density.

 Excited State   2:      Triplet-A      1.4370 eV  862.80 nm  f=0.0000  <S**2>=2.000
      93 -> 96        -0.44033
      94 -> 96         0.54576
      93 <- 96        -0.11213
      94 <- 96         0.13519

 Excited State   3:      Triplet-A      1.9976 eV  620.65 nm  f=0.0000  <S**2>=2.000
      84 -> 95         0.18232
      86 -> 95        -0.10155
      89 -> 95        -0.19070
      90 -> 95         0.56411
      91 -> 95        -0.11772
      92 -> 95        -0.17261
      93 -> 95        -0.12060
      94 -> 95         0.18869

 Excited State   4:      Singlet-A      2.3734 eV  522.39 nm  f=0.0000  <S**2>=0.000
      90 -> 95         0.25045
      92 -> 95        -0.12641
      93 -> 95        -0.31954
      94 -> 95         0.54977

 Excited State   5:      Singlet-A      2.5527 eV  485.69 nm  f=0.0002  <S**2>=0.000
      93 -> 95         0.58146
      94 -> 95         0.38988

 Excited State   6:      Singlet-A      2.6548 eV  467.01 nm  f=0.0000  <S**2>=0.000
      84 -> 95         0.13605
      89 -> 95        -0.16151
      90 -> 95         0.49311
      91 -> 95        -0.16236
      92 -> 95        -0.26894
      93 -> 95         0.23889
      94 -> 95        -0.20654

 The electronic state is 1-A.
 Alpha  occ. eigenvalues -- -101.60565 -19.35610 -19.25340 -19.23346 -19.23345
 Alpha  occ. eigenvalues --  -19.20081 -19.19695 -19.16794 -14.60106 -14.57943
 Alpha  occ. eigenvalues --  -14.44919 -10.35298 -10.32934 -10.31637 -10.30920
 Alpha  occ. eigenvalues --  -10.30782 -10.30733 -10.29763 -10.29566 -10.28156
 Alpha  occ. eigenvalues --  -10.26125 -10.25445 -10.23852 -10.23044 -10.20066
 Alpha  occ. eigenvalues --   -9.52037  -7.28495  -7.27454  -7.27409  -1.31562
 Alpha  occ. eigenvalues --   -1.23503  -1.13277  -1.11464  -1.10628  -1.05984
 Alpha  occ. eigenvalues --   -1.04961  -0.99427  -0.96339  -0.92919  -0.91951
 Alpha  occ. eigenvalues --   -0.88727  -0.84636  -0.83182  -0.79676  -0.78598
 Alpha  occ. eigenvalues --   -0.74375  -0.72671  -0.69880  -0.68694  -0.67596
 Alpha  occ. eigenvalues --   -0.63918  -0.63593  -0.61001  -0.60389  -0.60082
 Alpha  occ. eigenvalues --   -0.57263  -0.56851  -0.56167  -0.55450  -0.54827
 Alpha  occ. eigenvalues --   -0.53253  -0.52118  -0.52009  -0.50503  -0.49658
 Alpha  occ. eigenvalues --   -0.49219  -0.48832  -0.48616  -0.47407  -0.45983
 Alpha  occ. eigenvalues --   -0.45928  -0.45519  -0.44584  -0.42189  -0.40593
 Alpha  occ. eigenvalues --   -0.40549  -0.40109  -0.39505  -0.39239  -0.38439
 Alpha  occ. eigenvalues --   -0.37568  -0.36690  -0.36373  -0.35990  -0.35316
 Alpha  occ. eigenvalues --   -0.34877  -0.34641  -0.32970  -0.31243  -0.31148
 Alpha  occ. eigenvalues --   -0.30808  -0.29617  -0.26742  -0.26521
 Alpha virt. eigenvalues --   -0.15238  -0.14212  -0.08864  -0.06625  -0.04502
 Alpha virt. eigenvalues --   -0.03146  -0.02271  -0.01648  -0.00599  -0.00147
 Alpha virt. eigenvalues --    0.00821   0.01370   0.01688   0.02746   0.03168

 Mulliken charges:
               1
     1  C   -0.627561
     2  C    0.446470
     3  O   -0.124269
     4  C   -0.000471
     5  C   -0.022498
     6  C    0.100138
     7  C   -0.342246
     8  O   -0.319671
     9  C    0.363062
    10  O   -0.432909
    11  C    0.422856
    12  C    0.416609
    13  C    0.626066
    14  N   -0.934776
    15  O    0.180723
    16  O    0.206208
    17  C   -0.608591
    18  Cl   0.370739
    19  C    0.509346
    20  C   -0.546889
    21  C   -0.562841
    22  N   -0.566683
    23  O    0.534974
    24  N   -0.654946
    25  O    0.012597
    26  H    0.146815
    27  H    0.164399
    28  H    0.166415
    29  H    0.119729
    30  H    0.151710
    31  H    0.146577
    32  H    0.165825
    33  H    0.159042
    34  H    0.140088
    35  H    0.193963
 Sum of Mulliken charges =  -0.00000

 Dipole moment (field-independent basis, Debye):
    X=             -1.5119    Y=             -2.9794    Z=              0.4076  Tot=              3.3658
 Quadrupole moment (field-independent basis, Debye-Ang):
   XX=           -169.2143   YY=           -179.5282   ZZ=           -142.7136
   XY=            -11.5673   XZ=             -1.5740   YZ=              2.6814

 Normal termination of Gaussian 16 at Mon Sep 22 00:05:44 2025.
