 Gaussian 16, Revision C.02,
 Gaussian 16:  ES64L-G16RevC.02  7-Dec-2021

 ----------------------------------------------------------
 # td=(50-50,nstates=3) b3lyp/6-31+g(d,p) geom=connectivity
 ----------------------------------------------------------

 -------------------
 Title Card Required
 -------------------
 Symbolic Z-matrix:
 Charge =  0 Multiplicity = 1

                         Standard orientation:
 ---------------------------------------------------------------------
 Center     Atomic      Atomic             Coordinates (Angstroms)
 Number     Number       Type             X           Y           Z
 ---------------------------------------------------------------------
      1          6           0        1.019653   -1.498746    1.370797
      2          6           0        1.655313   -0.471208    0.775326
      3          6           0        3.130472   -0.505596    0.561603
      4          6           0        3.995982   -1.046008    1.528200
      5          6           0        5.371239   -1.113894    1.304634
      6          6           0        5.938785   -0.644787    0.110957
      7          6           0        7.426734   -0.754612   -0.145390
      8          6           0        7.824140   -2.077739   -0.827681
      9          6           0        5.075771   -0.093362   -0.847721
     10          6           0        3.700874   -0.018170   -0.627387
     11          6           0        0.917613    0.740800    0.319527
     12          6           0        1.406338    2.016214    0.649091
     13          6           0        0.750713    3.181032    0.262252
     14          6           0       -0.428103    3.119820   -0.497591
     15          6           0       -1.148253    4.381408   -0.925659
     16          6           0       -2.079507    4.944868    0.164693
     17          6           0       -0.926005    1.858799   -0.830137
     18          6           0       -0.286212    0.669100   -0.426985
     19          7           0       -0.736661   -0.578084   -0.890831
     20          6           0       -1.953088   -0.970761   -0.796372
     21          6           0       -2.398119   -2.250368   -1.345831
     22          6           0       -3.698394   -2.492682   -1.031792
     23          6           0       -4.234782   -1.400866   -0.247476
     24          6           0       -5.507600   -1.313886    0.255205
     25          6           0       -5.919396   -0.175630    1.017166
     26          7           0       -6.227225    0.765205    1.630781
     27          6           0       -6.468707   -2.351889    0.036031
     28          7           0       -7.234832   -3.207652   -0.154525
     29          6           0       -3.156935   -0.355166   -0.072748
     30          1           0       -0.043206   -1.466792    1.580314
     31          1           0        1.551480   -2.397627    1.666308
     32          1           0        3.589256   -1.391474    2.474137
     33          1           0        6.016168   -1.524677    2.078293
     34          1           0        7.751835    0.084703   -0.772158
     35          1           0        7.967901   -0.663177    0.804242
     36          1           0        8.905868   -2.119337   -0.996480
     37          1           0        7.542849   -2.937886   -0.210745
     38          1           0        7.324358   -2.185949   -1.796220
     39          1           0        5.485998    0.286228   -1.780882
     40          1           0        3.059306    0.413191   -1.389920
     41          1           0        2.326698    2.086213    1.220906
     42          1           0        1.166494    4.147203    0.536651
     43          1           0       -0.409207    5.145376   -1.196276
     44          1           0       -1.732467    4.178344   -1.831098
     45          1           0       -2.571447    5.860342   -0.181058
     46          1           0       -2.857530    4.222177    0.432431
     47          1           0       -1.520684    5.183978    1.075625
     48          1           0       -1.800648    1.789459   -1.470749
     49          1           0       -1.738544   -2.897209   -1.911947
     50          1           0       -4.270469   -3.371431   -1.304609
     51          1           0       -3.469500    0.600375   -0.503889
     52          1           0       -2.934641   -0.158329    0.982873
 ---------------------------------------------------------------------

 SCF Done:  E(RB3LYP) =  -1168.87809584     A.U. after   17 cycles

 Excitation energies and oscillator strengths:

 Excited State   1:      Triplet-A      1.7191 eV  721.23 nm  f=0.0000  <S**2>=2.000
      96 ->101         0.34610
      97 ->101        -0.11152
      99 ->101         0.40926
     100 ->101         0.42383
 This state for optimization and/or second-order correction.
 Total Energy, E(TD-HF/TD-DFT) =  -1168.81492148
 Copying the excited state density for this state as the 1-particle RhoCI density.

 Excited State   2:      Singlet-A      2.2671 eV  546.89 nm  f=0.1178  <S**2>=0.000
     100 ->101         0.70150

 Excited State   3:      Triplet-A      2.2715 eV  545.84 nm  f=0.0000  <S**2>=2.000
      96 ->101        -0.42764
      97 ->101         0.15056
      99 ->101        -0.11124
     100 ->101         0.50269

 Excited State   4:      Triplet-A      2.3227 eV  533.80 nm  f=0.0000  <S**2>=2.000
      96 ->101        -0.38425
      99 ->101         0.51517
      99 ->102         0.12377
     100 ->101        -0.22834

 Excited State   5:      Singlet-A      2.5342 eV  489.24 nm  f=0.0610  <S**2>=0.000
      96 ->101        -0.14814
      99 ->101         0.68004

 Excited State   6:      Singlet-A      3.1580 eV  392.61 nm  f=0.0084  <S**2>=0.000
      97 ->101         0.30755
      98 ->101         0.62571

 The electronic state is 1-A.
 Alpha  occ. eigenvalues --  -14.36979 -14.36780 -14.36643 -10.28925 -10.27976
 Alpha  occ. eigenvalues --  -10.27700 -10.26097 -10.26007 -10.24902 -10.24828
 Alpha  occ. eigenvalues --  -10.24762 -10.24299 -10.21669 -10.21639 -10.21581
 Alpha  occ. eigenvalues --  -10.20886 -10.20825 -10.20669 -10.20640 -10.20428
 Alpha  occ. eigenvalues --  -10.20383 -10.19999 -10.19913 -10.19828 -10.19823
 Alpha  occ. eigenvalues --  -10.19788 -10.19392 -10.19033 -10.18662  -0.97315
 Alpha  occ. eigenvalues --   -0.94332  -0.92782  -0.90915  -0.87718  -0.86660
 Alpha  occ. eigenvalues --   -0.83682  -0.82672  -0.79633  -0.77435  -0.76834
 Alpha  occ. eigenvalues --   -0.76319  -0.75346  -0.73589  -0.72013  -0.70481
 Alpha  occ. eigenvalues --   -0.65547  -0.64630  -0.64017  -0.62179  -0.61584
 Alpha  occ. eigenvalues --   -0.61110  -0.59952  -0.58654  -0.57866  -0.56521
 Alpha  occ. eigenvalues --   -0.54086  -0.51962  -0.49986  -0.49471  -0.48866
 Alpha  occ. eigenvalues --   -0.48490  -0.47651  -0.46526  -0.45831  -0.45182
 Alpha  occ. eigenvalues --   -0.44879  -0.44363  -0.43915  -0.43335  -0.42972
 Alpha  occ. eigenvalues --   -0.42715  -0.42483  -0.42299  -0.42195  -0.40638
 Alpha  occ. eigenvalues --   -0.39827  -0.39293  -0.39152  -0.38635  -0.38310
 Alpha  occ. eigenvalues --   -0.37576  -0.37016  -0.36818  -0.36684  -0.36429
 Alpha  occ. eigenvalues --   -0.36300  -0.35802  -0.35591  -0.35501  -0.34997
 Alpha  occ. eigenvalues --   -0.34210  -0.34023  -0.33368  -0.30832  -0.29697
 Alpha  occ. eigenvalues --   -0.27285  -0.26410  -0.25916  -0.24218  -0.22717
 Alpha virt. eigenvalues --   -0.12714  -0.05970  -0.04877  -0.02828  -0.02108
 Alpha virt. eigenvalues --   -0.02055  -0.01480  -0.01049  -0.00154   0.00013
 Alpha virt. eigenvalues --    0.00807   0.01015   0.01306   0.01594   0.01720

 Mulliken charges:
               1
     1  C   -0.246441
     2  C    0.695884
     3  C    0.371126
     4  C   -0.553142
     5  C    0.034056
     6  C    0.041261
     7  C   -0.072256
     8  C   -0.572506
     9  C   -0.338434
    10  C   -0.334051
    11  C    0.052697
    12  C   -0.265198
    13  C   -0.466739
    14  C    0.130470
    15  C   -0.028179
    16  C   -0.565612
    17  C    0.002551
    18  C    0.069775
    19  N   -0.038783
    20  C   -0.213671
    21  C   -0.847105
    22  C   -0.031347
    23  C    0.739157
    24  C    1.010815
    25  C   -0.393692
    26  N   -0.482294
    27  C   -0.268031
    28  N   -0.498812
    29  C   -0.207076
    30  H    0.120672
    31  H    0.131270
    32  H    0.123104
    33  H    0.117171
    34  H    0.137666
    35  H    0.137332
    36  H    0.143169
    37  H    0.150501
    38  H    0.150332
    39  H    0.117240
    40  H    0.122620
    41  H    0.132854
    42  H    0.123065
    43  H    0.143202
    44  H    0.133770
    45  H    0.145875
    46  H    0.153540
    47  H    0.151586
    48  H    0.104663
    49  H    0.156981
    50  H    0.171278
    51  H    0.201621
    52  H    0.206066
 Sum of Mulliken charges =  -0.00000

 Dipole moment (field-independent basis, Debye):
    X=              5.9861    Y=              1.0688    Z=             -1.9063  Tot=              6.3726
 Quadrupole moment (field-independent basis, Debye-Ang):
   XX=           -214.8043   YY=           -170.1141   ZZ=           -172.6016
   XY=            -10.0145   XZ=             13.2262   YZ=             -4.6073

 Normal termination of Gaussian 16 at Wed Aug  6 23:07:34 2025.
