 Gaussian 16, Revision C.02,
 Gaussian 16:  ES64L-G16RevC.02  7-Dec-2021

 ----------------------------------------------------------
 # td=(50-50,nstates=3) b3lyp/6-31+g(d,p) geom=connectivity
 ----------------------------------------------------------

 -------------------
 Title Card Required
 -------------------
 Symbolic Z-matrix:
 Charge =  0 Multiplicity = 1

                         Standard orientation:
 ---------------------------------------------------------------------
 Center     Atomic      Atomic             Coordinates (Angstroms)
 Number     Number       Type             X           Y           Z
 ---------------------------------------------------------------------
      1          6           0       -2.845763   -0.609626   -0.979962
      2          6           0       -2.262852    0.600494   -0.241312
      3          6           0       -1.380756    0.223979    0.972695
      4          6           0       -0.154677   -0.586016    0.615632
      5          8           0        0.056660   -1.713245    0.987727
      6          6           0        0.884652    0.095642   -0.375079
      7          6           0        1.122069    1.512182   -0.065279
      8          7           0        1.272231    2.633402    0.193295
      9          6           0        2.143498   -0.656339   -0.443605
     10          7           0        3.138894   -1.245601   -0.519791
     11          1           0       -3.492689   -0.286431   -1.801304
     12          1           0       -2.065864   -1.250779   -1.407682
     13          1           0       -3.443687   -1.232312   -0.305859
     14          1           0       -3.076999    1.229059    0.135797
     15          1           0       -1.698358    1.236621   -0.934648
     16          1           0       -1.053592    1.139913    1.479889
     17          1           0       -1.949667   -0.377343    1.687458
     18          1           0        0.412678    0.050730   -1.368529
 ---------------------------------------------------------------------

 SCF Done:  E(RB3LYP) =  -456.263902362     A.U. after   14 cycles

 Excitation energies and oscillator strengths:

 Excited State   1:      Triplet-A      3.7962 eV  326.60 nm  f=0.0000  <S**2>=2.000
      36 -> 37         0.69121
 This state for optimization and/or second-order correction.
 Total Energy, E(TD-HF/TD-DFT) =  -456.124393223
 Copying the excited state density for this state as the 1-particle RhoCI density.

 Excited State   2:      Singlet-A      4.4037 eV  281.55 nm  f=0.0007  <S**2>=0.000
      36 -> 37         0.69642

 Excited State   3:      Triplet-A      5.5719 eV  222.52 nm  f=0.0000  <S**2>=2.000
      25 -> 37        -0.12739
      26 -> 37        -0.35756
      30 -> 37         0.10270
      31 -> 38        -0.11813
      32 -> 37         0.31539
      33 -> 38         0.10239
      36 -> 38         0.13390
      36 -> 39        -0.21178

 Excited State   4:      Triplet-A      5.6101 eV  221.00 nm  f=0.0000  <S**2>=2.000
      25 -> 37         0.11356
      26 -> 37         0.31478
      30 -> 37        -0.21260
      31 -> 38        -0.12291
      32 -> 37        -0.19409
      33 -> 38         0.11106
      36 -> 38         0.20190
      36 -> 39        -0.25139

 Excited State   5:      Singlet-A      6.2727 eV  197.66 nm  f=0.0178  <S**2>=0.000
      36 -> 38         0.68742

 Excited State   6:      Singlet-A      6.4765 eV  191.44 nm  f=0.0336  <S**2>=0.000
      36 -> 39         0.68536

 The electronic state is 1-A.
 Alpha  occ. eigenvalues --  -19.20497 -14.38486 -14.37431 -10.34257 -10.31995
 Alpha  occ. eigenvalues --  -10.27870 -10.26798 -10.23703 -10.23226 -10.21039
 Alpha  occ. eigenvalues --   -1.10689  -0.95586  -0.93825  -0.86505  -0.83091
 Alpha  occ. eigenvalues --   -0.74827  -0.65243  -0.61377  -0.60915  -0.55813
 Alpha  occ. eigenvalues --   -0.52042  -0.49825  -0.48761  -0.46134  -0.43256
 Alpha  occ. eigenvalues --   -0.42711  -0.40679  -0.39647  -0.39199  -0.38708
 Alpha  occ. eigenvalues --   -0.38257  -0.37589  -0.37346  -0.36375  -0.36113
 Alpha  occ. eigenvalues --   -0.30356
 Alpha virt. eigenvalues --   -0.07656  -0.03713  -0.03247  -0.01360   0.00217
 Alpha virt. eigenvalues --    0.00340   0.00803   0.01288   0.01683   0.03525
 Alpha virt. eigenvalues --    0.04157   0.04986   0.05341   0.05659   0.06909

 Mulliken charges:
               1
     1  C   -0.515161
     2  C   -0.096810
     3  C   -0.218337
     4  C    0.049465
     5  O   -0.326679
     6  C    0.359176
     7  C    0.232681
     8  N   -0.450284
     9  C    0.028032
    10  N   -0.440017
    11  H    0.156092
    12  H    0.146248
    13  H    0.160183
    14  H    0.159682
    15  H    0.146519
    16  H    0.182883
    17  H    0.181070
    18  H    0.245255
 Sum of Mulliken charges =  -0.00000

 Dipole moment (field-independent basis, Debye):
    X=             -5.3605    Y=              0.8577    Z=             -1.1402  Tot=              5.5471
 Quadrupole moment (field-independent basis, Debye-Ang):
   XX=            -67.6195   YY=            -75.5007   ZZ=            -57.2381
   XY=              1.3501   XZ=              0.3257   YZ=              0.9113

 Normal termination of Gaussian 16 at Wed Aug  6 22:53:42 2025.
