 Gaussian 16, Revision C.02,
 Gaussian 16:  ES64L-G16RevC.02  7-Dec-2021

 ----------------------------------------------------------
 # td=(50-50,nstates=3) b3lyp/6-31+g(d,p) geom=connectivity
 ----------------------------------------------------------

 -------------------
 Title Card Required
 -------------------
 Symbolic Z-matrix:
 Charge =  0 Multiplicity = 1

                         Standard orientation:
 ---------------------------------------------------------------------
 Center     Atomic      Atomic             Coordinates (Angstroms)
 Number     Number       Type             X           Y           Z
 ---------------------------------------------------------------------
      1          6           0        4.889782   -1.259570   -0.001645
      2          6           0        3.583536   -2.032562    0.000386
      3          8           0        2.504369   -1.094677   -0.000749
      4          6           0        1.240130   -1.695978    0.000973
      5          6           0        0.136479   -0.667464    0.000308
      6          6           0        0.243507    0.698881    0.000247
      7          7           0        1.573186    1.364830    0.000583
      8          8           0        2.048796    1.637827   -1.093573
      9          8           0        2.048587    1.637164    1.095003
     10          6           0       -0.895628    1.598244   -0.000061
     11         17           0       -0.620025    3.317112   -0.000267
     12          6           0       -2.180929    1.128737   -0.000235
     13          6           0       -2.319651   -0.277352   -0.000191
     14          6           0       -1.212299   -1.167157    0.000073
     15          7           0       -1.601806   -2.433054    0.000292
     16          8           0       -2.968499   -2.405765    0.000010
     17          7           0       -3.430449   -1.030855   -0.000300
     18          8           0       -4.632131   -0.799055   -0.000541
     19          1           0        5.734476   -1.956221   -0.000814
     20          1           0        4.961898   -0.625519   -0.889834
     21          1           0        4.962772   -0.622341    0.884194
     22          1           0        3.505981   -2.674917    0.891609
     23          1           0        3.505090   -2.678091   -0.888462
     24          1           0        1.102079   -2.344409   -0.881623
     25          1           0        1.103305   -2.341906    0.885615
     26          1           0       -3.040236    1.787434   -0.000508
 ---------------------------------------------------------------------

 SCF Done:  E(RB3LYP) =  -1348.10590913     A.U. after   18 cycles

 Excitation energies and oscillator strengths:

 Excited State   1:      Triplet-A      1.2669 eV  978.67 nm  f=0.0000  <S**2>=2.000
      67 -> 74         0.10449
      70 -> 71         0.71953
      70 -> 74         0.10235
      70 <- 71         0.22830
 This state for optimization and/or second-order correction.
 Total Energy, E(TD-HF/TD-DFT) =  -1348.05935249
 Copying the excited state density for this state as the 1-particle RhoCI density.

 Excited State   2:      Triplet-A      2.8499 eV  435.05 nm  f=0.0000  <S**2>=2.000
      64 -> 72        -0.66368
      67 -> 72        -0.13233
      69 -> 72         0.22906
      64 <- 72        -0.17709

 Excited State   3:      Triplet-A      3.1738 eV  390.65 nm  f=0.0000  <S**2>=2.000
      63 -> 71         0.16062
      67 -> 71         0.39953
      68 -> 71         0.19208
      69 -> 71         0.38314
      70 -> 74         0.32311

 Excited State   4:      Singlet-A      3.2378 eV  382.93 nm  f=0.1162  <S**2>=0.000
      70 -> 71         0.69669

 Excited State   5:      Singlet-A      3.5118 eV  353.05 nm  f=0.0000  <S**2>=0.000
      68 -> 72        -0.19702
      69 -> 72        -0.12050
      70 -> 72         0.66035

 Excited State   6:      Singlet-A      3.7005 eV  335.05 nm  f=0.0053  <S**2>=0.000
      69 -> 71         0.70049

 The electronic state is 1-A.
 Alpha  occ. eigenvalues -- -101.59437 -19.31146 -19.22158 -19.21922 -19.21921
 Alpha  occ. eigenvalues --  -19.18717 -14.60396 -14.57876 -14.44322 -10.31756
 Alpha  occ. eigenvalues --  -10.30776 -10.29900 -10.29212 -10.28458 -10.27946
 Alpha  occ. eigenvalues --  -10.26657 -10.25782 -10.19204  -9.50892  -7.27351
 Alpha  occ. eigenvalues --   -7.26308  -7.26269  -1.25979  -1.25086  -1.15335
 Alpha  occ. eigenvalues --   -1.08924  -1.07333  -0.96704  -0.92455  -0.91883
 Alpha  occ. eigenvalues --   -0.87410  -0.82219  -0.80006  -0.77254  -0.71894
 Alpha  occ. eigenvalues --   -0.69157  -0.67334  -0.63929  -0.63748  -0.59305
 Alpha  occ. eigenvalues --   -0.58785  -0.57005  -0.56031  -0.54562  -0.54026
 Alpha  occ. eigenvalues --   -0.53011  -0.51975  -0.51460  -0.50272  -0.48672
 Alpha  occ. eigenvalues --   -0.47005  -0.46566  -0.45069  -0.44836  -0.44189
 Alpha  occ. eigenvalues --   -0.40762  -0.39965  -0.39323  -0.38640  -0.37394
 Alpha  occ. eigenvalues --   -0.35574  -0.35367  -0.35089  -0.34082  -0.33396
 Alpha  occ. eigenvalues --   -0.32686  -0.32409  -0.30645  -0.28915  -0.25671
 Alpha virt. eigenvalues --   -0.13020  -0.10051  -0.04570  -0.04184  -0.02629
 Alpha virt. eigenvalues --   -0.01083   0.00142   0.00757   0.01389   0.02245
 Alpha virt. eigenvalues --    0.02346   0.02988   0.04177   0.04482   0.04663

 Mulliken charges:
               1
     1  C   -0.676504
     2  C    0.300871
     3  O   -0.315262
     4  C   -0.453397
     5  C    0.562416
     6  C   -0.176753
     7  N   -0.394850
     8  O    0.073781
     9  O    0.073583
    10  C    0.039536
    11  Cl   0.315147
    12  C    0.918055
    13  C   -0.081896
    14  C   -0.771177
    15  N   -0.504869
    16  O    0.370543
    17  N   -0.585205
    18  O    0.073800
    19  H    0.146112
    20  H    0.169848
    21  H    0.169886
    22  H    0.122649
    23  H    0.122665
    24  H    0.159209
    25  H    0.159228
    26  H    0.182586
 Sum of Mulliken charges =  -0.00000

 Dipole moment (field-independent basis, Debye):
    X=              1.0769    Y=             -1.4660    Z=              0.0016  Tot=              1.8191
 Quadrupole moment (field-independent basis, Debye-Ang):
   XX=           -120.3476   YY=           -112.0822   ZZ=           -112.1482
   XY=            -18.8527   XZ=              0.0024   YZ=             -0.0041

 Normal termination of Gaussian 16 at Mon Sep 22 00:11:34 2025.
