 Gaussian 16, Revision C.02,
 Gaussian 16:  ES64L-G16RevC.02  7-Dec-2021

 ----------------------------------------------------------
 # td=(50-50,nstates=3) b3lyp/6-31+g(d,p) geom=connectivity
 ----------------------------------------------------------

 -------------------
 Title Card Required
 -------------------
 Symbolic Z-matrix:
 Charge =  0 Multiplicity = 1

                         Standard orientation:
 ---------------------------------------------------------------------
 Center     Atomic      Atomic             Coordinates (Angstroms)
 Number     Number       Type             X           Y           Z
 ---------------------------------------------------------------------
      1          6           0        2.424556   -1.492778   -0.000032
      2          6           0        1.228982   -0.607015    0.000017
      3          7           0        1.272042    0.718669    0.000004
      4          8           0        2.250848    1.484789   -0.000042
      5          6           0       -0.222201    1.298945    0.000139
      6          8           0       -0.407780    2.474309   -0.000037
      7          6           0       -1.035601    0.103428    0.000036
      8          6           0       -2.442302    0.013784   -0.000026
      9          7           0       -3.598185   -0.147397   -0.000052
     10          6           0       -0.168975   -0.982191    0.000040
     11          8           0       -0.488987   -2.266895    0.000006
     12          1           0        3.325072   -0.875862   -0.000360
     13          1           0        2.436997   -2.139933    0.883762
     14          1           0        2.436604   -2.140343   -0.883526
     15          1           0       -1.455084   -2.385428   -0.000002
 ---------------------------------------------------------------------

 SCF Done:  E(RB3LYP) =  -566.148941973     A.U. after   16 cycles

 Excitation energies and oscillator strengths:

 Excited State   1:      Triplet-A      0.9021 eV 1374.45 nm  f=0.0000  <S**2>=2.000
      37 -> 40         0.13955
      39 -> 40         0.73710
      39 -> 44         0.11426
      39 <- 40         0.26256
 This state for optimization and/or second-order correction.
 Total Energy, E(TD-HF/TD-DFT) =  -566.115791787
 Copying the excited state density for this state as the 1-particle RhoCI density.

 Excited State   2:      Triplet-A      2.2097 eV  561.08 nm  f=0.0000  <S**2>=2.000
      38 -> 40         0.70165

 Excited State   3:      Singlet-A      2.5200 eV  491.99 nm  f=0.0348  <S**2>=0.000
      39 -> 40         0.70354

 Excited State   4:      Singlet-A      2.6404 eV  469.57 nm  f=0.0000  <S**2>=0.000
      38 -> 40         0.70428

 Excited State   5:      Triplet-A      3.0081 eV  412.17 nm  f=0.0000  <S**2>=2.000
      37 -> 40         0.67257
      39 -> 40        -0.12473
      39 -> 44         0.13848

 Excited State   6:      Singlet-A      4.3279 eV  286.48 nm  f=0.0000  <S**2>=0.000
      35 -> 40        -0.16406
      36 -> 40         0.67835

 The electronic state is 1-A.
 Alpha  occ. eigenvalues --  -19.28023 -19.21410 -19.20408 -14.52172 -14.36915
 Alpha  occ. eigenvalues --  -10.35999 -10.35440 -10.28728 -10.26773 -10.26542
 Alpha  occ. eigenvalues --  -10.23357  -1.17719  -1.16382  -1.11365  -0.96406
 Alpha  occ. eigenvalues --   -0.93409  -0.84168  -0.78830  -0.73693  -0.67875
 Alpha  occ. eigenvalues --   -0.63418  -0.61035  -0.56388  -0.53888  -0.51546
 Alpha  occ. eigenvalues --   -0.51195  -0.48184  -0.47464  -0.46049  -0.45685
 Alpha  occ. eigenvalues --   -0.43734  -0.43092  -0.39250  -0.39159  -0.37299
 Alpha  occ. eigenvalues --   -0.35568  -0.32431  -0.29443  -0.25726
 Alpha virt. eigenvalues --   -0.14527  -0.04026  -0.03188  -0.01580  -0.00467
 Alpha virt. eigenvalues --   -0.00428   0.01587   0.02368   0.03533   0.04408
 Alpha virt. eigenvalues --    0.05428   0.05478   0.06580   0.07284   0.07291

 Mulliken charges:
               1
     1  C   -0.568831
     2  C    0.397893
     3  N   -0.380551
     4  O    0.078681
     5  C    0.535369
     6  O   -0.441353
     7  C    0.319627
     8  C   -0.157086
     9  N   -0.593667
    10  C    0.356815
    11  O   -0.492285
    12  H    0.196949
    13  H    0.181176
    14  H    0.181168
    15  H    0.386095
 Sum of Mulliken charges =  -0.00000

 Dipole moment (field-independent basis, Debye):
    X=              2.2739    Y=             -5.3968    Z=              0.0004  Tot=              5.8563
 Quadrupole moment (field-independent basis, Debye-Ang):
   XX=            -77.8837   YY=            -66.4834   ZZ=            -60.7272
   XY=             -2.9490   XZ=             -0.0002   YZ=              0.0006

 Normal termination of Gaussian 16 at Wed Aug  6 22:54:40 2025.
