 Gaussian 16, Revision C.02,
 Gaussian 16:  ES64L-G16RevC.02  7-Dec-2021

 ----------------------------------------------------------
 # td=(50-50,nstates=3) b3lyp/6-31+g(d,p) geom=connectivity
 ----------------------------------------------------------

 -------------------
 Title Card Required
 -------------------
 Symbolic Z-matrix:
 Charge =  0 Multiplicity = 1

                         Standard orientation:
 ---------------------------------------------------------------------
 Center     Atomic      Atomic             Coordinates (Angstroms)
 Number     Number       Type             X           Y           Z
 ---------------------------------------------------------------------
      1          6           0       -1.946690    2.968167   -0.488906
      2          6           0       -0.718883    2.490869   -0.792678
      3          6           0       -0.377682    2.312785   -2.179509
      4          7           0       -0.136192    2.160594   -3.307362
      5          6           0        0.266391    2.122624    0.226976
      6          6           0        1.540447    1.669761    0.196010
      7          6           0        2.446953    1.392194   -0.982260
      8          6           0        3.919687    1.699417   -0.655084
      9          6           0        2.263949   -0.052640   -1.562623
     10          6           0        2.461441   -1.204643   -0.629798
     11          6           0        3.696509   -1.821495   -0.262332
     12          8           0        4.861023   -1.627371   -0.545243
     13          8           0        3.299130   -2.854464    0.637615
     14          7           0        1.944954   -2.887624    0.791473
     15          7           0        1.503333   -1.904643    0.031083
     16          6           0        0.078929   -1.689125    0.014456
     17          6           0       -0.569271   -1.401113    1.215286
     18          6           0       -1.938072   -1.137418    1.202725
     19          6           0       -2.626218   -1.162292   -0.010703
     20         35           0       -4.480592   -0.747865   -0.038115
     21          6           0       -1.983723   -1.492648   -1.204992
     22          6           0       -0.616124   -1.761276   -1.192603
     23          6           0        1.967685    1.475447    1.631142
     24          6           0        0.733029    1.851799    2.427618
     25          8           0        0.533184    1.832256    3.611778
     26          8           0       -0.236392    2.256258    1.529298
     27          1           0       -2.246627    3.109706    0.541955
     28          1           0       -2.652208    3.219116   -1.272346
     29          1           0        2.151631    2.052823   -1.802635
     30          1           0        4.534845    1.568929   -1.549571
     31          1           0        4.034934    2.733943   -0.314813
     32          1           0        4.325811    1.032339    0.110172
     33          1           0        1.276867   -0.107483   -2.025023
     34          1           0        2.995547   -0.166821   -2.371218
     35          1           0       -0.011847   -1.379013    2.145246
     36          1           0       -2.454890   -0.895943    2.124127
     37          1           0       -2.539623   -1.534496   -2.134359
     38          1           0       -0.102839   -2.028283   -2.109737
     39          1           0        2.277166    0.452363    1.875550
     40          1           0        2.801606    2.123899    1.926393
 ---------------------------------------------------------------------

 SCF Done:  E(RB3LYP) =  -3731.16858449     A.U. after   17 cycles

 Excitation energies and oscillator strengths:

 Excited State   1:      Triplet-A      1.7618 eV  703.74 nm  f=0.0000  <S**2>=2.000
     105 ->106        -0.25313
     105 ->107         0.60673
     105 ->109        -0.27374
     105 <-107         0.15039
 This state for optimization and/or second-order correction.
 Total Energy, E(TD-HF/TD-DFT) =  -3731.10384003
 Copying the excited state density for this state as the 1-particle RhoCI density.

 Excited State   2:      Triplet-A      2.3026 eV  538.44 nm  f=0.0000  <S**2>=2.000
      98 ->106         0.17515
     104 ->106         0.61410
     104 ->107         0.15033
     105 ->106        -0.20094
     104 <-106         0.11841

 Excited State   3:      Singlet-A      3.2362 eV  383.11 nm  f=0.0156  <S**2>=0.000
     105 ->106         0.70027

 Excited State   4:      Triplet-A      3.2811 eV  377.88 nm  f=0.0000  <S**2>=2.000
     104 ->106         0.19569
     105 ->106         0.62606
     105 ->107         0.23897

 Excited State   5:      Singlet-A      3.6603 eV  338.73 nm  f=0.0379  <S**2>=0.000
     105 ->107         0.65121
     105 ->109         0.23389

 Excited State   6:      Singlet-A      3.9843 eV  311.18 nm  f=0.0031  <S**2>=0.000
     105 ->108         0.70425

 The electronic state is 1-A.
 Alpha  occ. eigenvalues -- -482.96427 -61.92273 -56.43771 -56.43388 -56.43369
 Alpha  occ. eigenvalues --  -19.26092 -19.24187 -19.17996 -19.14381 -14.50084
 Alpha  occ. eigenvalues --  -14.45697 -14.37589 -10.35572 -10.32670 -10.29964
 Alpha  occ. eigenvalues --  -10.29272 -10.29249 -10.28314 -10.26863 -10.26730
 Alpha  occ. eigenvalues --  -10.25497 -10.25307 -10.25045 -10.24911 -10.24884
 Alpha  occ. eigenvalues --  -10.24606 -10.24555 -10.23845 -10.23541 -10.20017
 Alpha  occ. eigenvalues --   -8.62515  -6.57685  -6.56408  -6.56359  -2.69228
 Alpha  occ. eigenvalues --   -2.68868  -2.68830  -2.67811  -2.67811  -1.20441
 Alpha  occ. eigenvalues --   -1.15099  -1.07023  -1.06235  -1.03027  -0.94519
 Alpha  occ. eigenvalues --   -0.92297  -0.88119  -0.86463  -0.85274  -0.85129
 Alpha  occ. eigenvalues --   -0.80932  -0.80627  -0.78613  -0.75857  -0.73351
 Alpha  occ. eigenvalues --   -0.70120  -0.68305  -0.67892  -0.67299  -0.65594
 Alpha  occ. eigenvalues --   -0.63214  -0.62162  -0.58720  -0.57422  -0.55809
 Alpha  occ. eigenvalues --   -0.54862  -0.52694  -0.52350  -0.51730  -0.50898
 Alpha  occ. eigenvalues --   -0.50204  -0.49162  -0.48160  -0.47923  -0.47281
 Alpha  occ. eigenvalues --   -0.46463  -0.46104  -0.45198  -0.44904  -0.44126
 Alpha  occ. eigenvalues --   -0.43804  -0.42555  -0.42485  -0.42058  -0.41991
 Alpha  occ. eigenvalues --   -0.41433  -0.40891  -0.40130  -0.39739  -0.39177
 Alpha  occ. eigenvalues --   -0.38658  -0.38564  -0.37939  -0.37569  -0.36718
 Alpha  occ. eigenvalues --   -0.35893  -0.35004  -0.32348  -0.32151  -0.31128
 Alpha  occ. eigenvalues --   -0.30997  -0.29149  -0.28494  -0.26477  -0.23813
 Alpha virt. eigenvalues --   -0.10064  -0.08952  -0.06746  -0.05817  -0.04306
 Alpha virt. eigenvalues --   -0.03903  -0.02162  -0.00997  -0.00726  -0.00530
 Alpha virt. eigenvalues --   -0.00050   0.00319   0.01469   0.01791   0.02011

 Mulliken charges:
               1
     1  C   -0.301804
     2  C    0.922551
     3  C   -0.616170
     4  N   -0.382665
     5  C    0.463561
     6  C   -0.422477
     7  C    0.319895
     8  C   -0.682636
     9  C   -0.172387
    10  C   -0.457607
    11  C    0.586794
    12  O   -0.520307
    13  O    0.021380
    14  N   -0.316390
    15  N    0.497462
    16  C   -1.111850
    17  C    1.024532
    18  C   -0.259842
    19  C   -0.089352
    20  Br   0.080362
    21  C   -0.353379
    22  C    0.096781
    23  C   -0.160515
    24  C    0.114929
    25  O   -0.386660
    26  O   -0.250906
    27  H    0.180158
    28  H    0.168339
    29  H    0.156349
    30  H    0.161400
    31  H    0.148402
    32  H    0.178561
    33  H    0.153382
    34  H    0.178555
    35  H    0.155221
    36  H    0.157523
    37  H    0.156291
    38  H    0.151139
    39  H    0.201484
    40  H    0.209900
 Sum of Mulliken charges =  -0.00000

 Dipole moment (field-independent basis, Debye):
    X=             -4.4228    Y=              2.1393    Z=             -1.2613  Tot=              5.0724
 Quadrupole moment (field-independent basis, Debye-Ang):
   XX=           -182.4003   YY=           -169.5092   ZZ=           -181.9380
   XY=             14.5432   XZ=              1.9764   YZ=              3.4130

 Normal termination of Gaussian 16 at Wed Aug  6 23:07:36 2025.
