 Gaussian 16, Revision C.02,
 Gaussian 16:  ES64L-G16RevC.02  7-Dec-2021

 ----------------------------------------------------------
 # td=(50-50,nstates=3) b3lyp/6-31+g(d,p) geom=connectivity
 ----------------------------------------------------------

 -------------------
 Title Card Required
 -------------------
 Symbolic Z-matrix:
 Charge =  0 Multiplicity = 1

                         Standard orientation:
 ---------------------------------------------------------------------
 Center     Atomic      Atomic             Coordinates (Angstroms)
 Number     Number       Type             X           Y           Z
 ---------------------------------------------------------------------
      1          6           0        4.239519   -2.188234   -1.134576
      2          6           0        3.193150   -2.326577   -0.293362
      3          6           0        3.169872   -3.467357    0.586089
      4          7           0        3.172648   -4.389596    1.295920
      5          6           0        2.110774   -1.337079   -0.169045
      6          6           0        0.762726   -1.464923   -0.040400
      7          6           0        0.109556   -2.838201   -0.125254
      8          6           0       -0.367729   -3.384028    1.237146
      9          6           0       -0.945393   -2.969021   -1.243215
     10          6           0        0.210619   -0.063199   -0.030606
     11          6           0       -1.073891    0.420163   -0.102570
     12          6           0       -2.383425   -0.246761    0.221195
     13          8           0       -2.548006   -1.255083    0.899162
     14          6           0       -3.471990    0.600822   -0.339379
     15          6           0       -4.935163    0.231203   -0.305905
     16          6           0       -5.209631   -1.092768   -1.047172
     17          6           0       -5.473958    0.182289    1.139509
     18          6           0       -2.921592    1.732616   -0.818190
     19          6           0       -1.433600    1.808249   -0.616623
     20          6           0        1.371488    0.826544   -0.118146
     21          6           0        1.500125    2.285173    0.077839
     22          6           0        2.117930    3.089686   -0.892163
     23          6           0        2.262614    4.462289   -0.685101
     24          6           0        1.802662    5.048165    0.497804
     25          6           0        1.203816    4.251867    1.478258
     26          6           0        1.056523    2.879173    1.271481
     27          7           0        2.470825    0.077347   -0.202377
     28          8           0        3.676134    0.472062   -0.248321
     29          1           0        4.320505   -1.331815   -1.790862
     30          1           0        5.034733   -2.925494   -1.150323
     31          1           0        0.922898   -3.500271   -0.439089
     32          1           0       -0.734805   -4.407814    1.102547
     33          1           0        0.463473   -3.424394    1.946891
     34          1           0       -1.170806   -2.779068    1.653586
     35          1           0       -1.179182   -4.029873   -1.383652
     36          1           0       -0.561622   -2.584575   -2.194809
     37          1           0       -1.877166   -2.458996   -1.005068
     38          1           0       -5.470819    1.030514   -0.836518
     39          1           0       -6.285463   -1.298194   -1.062876
     40          1           0       -4.859853   -1.048599   -2.084230
     41          1           0       -4.711773   -1.929988   -0.549710
     42          1           0       -6.548946   -0.028983    1.131476
     43          1           0       -5.321244    1.138162    1.651967
     44          1           0       -4.973781   -0.600871    1.715552
     45          1           0       -3.476588    2.546822   -1.276375
     46          1           0       -0.891947    2.061263   -1.535429
     47          1           0       -1.192897    2.600909    0.101155
     48          1           0        2.490306    2.635750   -1.804734
     49          1           0        2.740732    5.073100   -1.445266
     50          1           0        1.919282    6.115853    0.658971
     51          1           0        0.860197    4.696222    2.407882
     52          1           0        0.605409    2.259707    2.041712
 ---------------------------------------------------------------------

 SCF Done:  E(RB3LYP) =  -1188.89225826     A.U. after   20 cycles

 Excitation energies and oscillator strengths:

 Excited State   1:      Triplet-A      0.6551 eV 1892.70 nm  f=0.0000  <S**2>=2.000
      98 ->100         0.25399
      99 ->100         0.72594
      99 ->102         0.15074
      98 <-100         0.15462
      99 <-100         0.32252
 This state for optimization and/or second-order correction.
 Total Energy, E(TD-HF/TD-DFT) =  -1188.86818501
 Copying the excited state density for this state as the 1-particle RhoCI density.

 Excited State   2:      Triplet-A      1.8227 eV  680.24 nm  f=0.0000  <S**2>=2.000
      92 ->100        -0.10749
      98 ->100         0.64308
      99 ->100        -0.19811
      98 <-100         0.10177

 Excited State   3:      Singlet-A      2.1020 eV  589.85 nm  f=0.0098  <S**2>=0.000
      98 ->100        -0.22967
      99 ->100         0.66606

 Excited State   4:      Triplet-A      2.2265 eV  556.87 nm  f=0.0000  <S**2>=2.000
      96 ->100         0.17724
      97 ->100         0.65989

 Excited State   5:      Singlet-A      2.5438 eV  487.40 nm  f=0.0004  <S**2>=0.000
      96 ->100         0.15367
      97 ->100         0.66891
      98 ->100         0.11960

 Excited State   6:      Singlet-A      2.8877 eV  429.36 nm  f=0.0005  <S**2>=0.000
      93 ->100         0.12055
      94 ->100         0.45914
      95 ->100        -0.10758
      96 ->100         0.48245
      97 ->100        -0.12068

 The electronic state is 1-A.
 Alpha  occ. eigenvalues --  -19.15968 -19.15694 -14.49473 -14.35044 -10.29318
 Alpha  occ. eigenvalues --  -10.26277 -10.26065 -10.25353 -10.24966 -10.24584
 Alpha  occ. eigenvalues --  -10.24324 -10.23877 -10.23287 -10.22980 -10.22614
 Alpha  occ. eigenvalues --  -10.22379 -10.21744 -10.21354 -10.21309 -10.21198
 Alpha  occ. eigenvalues --  -10.21149 -10.21134 -10.21061 -10.21039 -10.18481
 Alpha  occ. eigenvalues --  -10.18355 -10.18111 -10.16499  -1.13309  -1.05476
 Alpha  occ. eigenvalues --   -0.94196  -0.91890  -0.88544  -0.87774  -0.84923
 Alpha  occ. eigenvalues --   -0.82345  -0.81388  -0.78861  -0.77682  -0.76501
 Alpha  occ. eigenvalues --   -0.74295  -0.71740  -0.69664  -0.69195  -0.68431
 Alpha  occ. eigenvalues --   -0.66949  -0.64940  -0.62999  -0.62312  -0.60868
 Alpha  occ. eigenvalues --   -0.59675  -0.57748  -0.56088  -0.53235  -0.52742
 Alpha  occ. eigenvalues --   -0.52044  -0.50711  -0.49957  -0.48832  -0.47780
 Alpha  occ. eigenvalues --   -0.47667  -0.47060  -0.46492  -0.46353  -0.45686
 Alpha  occ. eigenvalues --   -0.44707  -0.43895  -0.43782  -0.43311  -0.42781
 Alpha  occ. eigenvalues --   -0.42468  -0.42350  -0.41902  -0.41306  -0.41013
 Alpha  occ. eigenvalues --   -0.39953  -0.38996  -0.38711  -0.38156  -0.37674
 Alpha  occ. eigenvalues --   -0.37284  -0.37012  -0.36412  -0.35685  -0.35491
 Alpha  occ. eigenvalues --   -0.35374  -0.35165  -0.34639  -0.34365  -0.33565
 Alpha  occ. eigenvalues --   -0.32445  -0.30780  -0.28301  -0.27875  -0.27693
 Alpha  occ. eigenvalues --   -0.26836  -0.26369  -0.25675  -0.22682
 Alpha virt. eigenvalues --   -0.12999  -0.07110  -0.05614  -0.03325  -0.02769
 Alpha virt. eigenvalues --   -0.01339  -0.00312   0.00089   0.00775   0.01104
 Alpha virt. eigenvalues --    0.01519   0.01779   0.02020   0.02392   0.02604

 Mulliken charges:
               1
     1  C   -0.336400
     2  C    0.337132
     3  C   -0.103291
     4  N   -0.456818
     5  C   -0.253056
     6  C    0.494392
     7  C    0.036697
     8  C   -0.604420
     9  C   -0.597887
    10  C    0.493176
    11  C    0.624217
    12  C   -0.110579
    13  O   -0.440900
    14  C    0.068439
    15  C    0.578446
    16  C   -0.557433
    17  C   -0.561939
    18  C   -0.600219
    19  C   -0.533950
    20  C   -0.056298
    21  C   -0.158048
    22  C   -0.378568
    23  C   -0.001258
    24  C   -0.162349
    25  C   -0.083578
    26  C   -0.006126
    27  N   -0.339700
    28  O    0.111095
    29  H    0.176430
    30  H    0.164968
    31  H    0.118074
    32  H    0.139055
    33  H    0.158515
    34  H    0.190995
    35  H    0.146939
    36  H    0.135122
    37  H    0.156717
    38  H    0.120766
    39  H    0.143470
    40  H    0.142001
    41  H    0.175936
    42  H    0.142635
    43  H    0.141086
    44  H    0.182396
    45  H    0.138800
    46  H    0.178954
    47  H    0.203710
    48  H    0.126296
    49  H    0.129207
    50  H    0.128664
    51  H    0.129575
    52  H    0.128914
 Sum of Mulliken charges =  -0.00000

 Dipole moment (field-independent basis, Debye):
    X=             -3.4057    Y=              5.2917    Z=             -3.9374  Tot=              7.4232
 Quadrupole moment (field-independent basis, Debye-Ang):
   XX=           -170.5514   YY=           -170.9265   ZZ=           -165.9876
   XY=              0.5235   XZ=             -7.7094   YZ=             11.3408

 Normal termination of Gaussian 16 at Wed Aug  6 23:25:02 2025.
