 Gaussian 16, Revision C.02,
 Gaussian 16:  ES64L-G16RevC.02  7-Dec-2021

 ----------------------------------------------------------
 # td=(50-50,nstates=3) b3lyp/6-31+g(d,p) geom=connectivity
 ----------------------------------------------------------

 -------------------
 Title Card Required
 -------------------
 Symbolic Z-matrix:
 Charge =  0 Multiplicity = 1

                         Standard orientation:
 ---------------------------------------------------------------------
 Center     Atomic      Atomic             Coordinates (Angstroms)
 Number     Number       Type             X           Y           Z
 ---------------------------------------------------------------------
      1          6           0        5.017728   -1.199786    0.254220
      2          8           0        3.833251   -0.878593   -0.455922
      3          6           0        2.930149   -0.091085    0.304134
      4          6           0        1.718376    0.182670   -0.575832
      5          6           0        0.665967    1.038827    0.093616
      6          8           0        0.826832    1.586273    1.163761
      7          6           0       -0.686535    1.148273   -0.673313
      8          6           0       -1.333398    2.441203   -0.420534
      9          7           0       -1.852002    3.465338   -0.248222
     10          6           0       -1.582648   -0.035627   -0.289735
     11          6           0       -1.881607   -1.023196   -1.235370
     12          6           0       -2.676393   -2.118021   -0.884347
     13          6           0       -3.177072   -2.230327    0.414398
     14          6           0       -2.881026   -1.244169    1.360728
     15          6           0       -2.085959   -0.151120    1.013194
     16          1           0        5.638779   -1.799830   -0.414032
     17          1           0        5.570032   -0.293061    0.543424
     18          1           0        4.795817   -1.782644    1.160905
     19          1           0        2.627174   -0.623112    1.219109
     20          1           0        3.401652    0.853039    0.613502
     21          1           0        2.036075    0.693782   -1.496377
     22          1           0        1.263023   -0.761296   -0.901447
     23          1           0       -0.479155    1.088839   -1.748098
     24          1           0       -1.502474   -0.935458   -2.250434
     25          1           0       -2.906045   -2.876346   -1.626921
     26          1           0       -3.797487   -3.078655    0.687514
     27          1           0       -3.270874   -1.323951    2.371055
     28          1           0       -1.858652    0.614043    1.749684
 ---------------------------------------------------------------------

 SCF Done:  E(RB3LYP) =  -670.309548497     A.U. after   15 cycles

 Excitation energies and oscillator strengths:

 Excited State   1:      Triplet-A      3.6033 eV  344.09 nm  f=0.0000  <S**2>=2.000
      51 -> 57        -0.21620
      52 -> 56        -0.30363
      54 -> 55         0.54121
      54 -> 56        -0.11840
      54 -> 57         0.11382
 This state for optimization and/or second-order correction.
 Total Energy, E(TD-HF/TD-DFT) =  -670.177129721
 Copying the excited state density for this state as the 1-particle RhoCI density.

 Excited State   2:      Triplet-A      3.8274 eV  323.93 nm  f=0.0000  <S**2>=2.000
      51 -> 55         0.44719
      52 -> 56         0.30018
      52 -> 57         0.12556
      54 -> 55         0.20560
      54 -> 56         0.18443
      54 -> 57        -0.30763

 Excited State   3:      Singlet-A      4.2807 eV  289.64 nm  f=0.0145  <S**2>=0.000
      51 -> 55         0.36067
      51 -> 57        -0.11693
      54 -> 55         0.55547
      54 -> 57        -0.16078

 Excited State   4:      Triplet-A      4.5128 eV  274.74 nm  f=0.0000  <S**2>=2.000
      51 -> 56         0.13313
      52 -> 55         0.51287
      52 -> 57         0.31737
      54 -> 56        -0.31436

 Excited State   5:      Singlet-A      5.0484 eV  245.59 nm  f=0.0055  <S**2>=0.000
      51 -> 56        -0.11065
      52 -> 55         0.57769
      54 -> 55         0.13124
      54 -> 56         0.32137

 Excited State   6:      Singlet-A      5.1620 eV  240.19 nm  f=0.0013  <S**2>=0.000
      53 -> 55         0.69927

 The electronic state is 1-A.
 Alpha  occ. eigenvalues --  -19.17975 -19.17196 -14.34837 -10.31656 -10.26659
 Alpha  occ. eigenvalues --  -10.25178 -10.24126 -10.24099 -10.23737 -10.22181
 Alpha  occ. eigenvalues --  -10.22100 -10.21771 -10.21652 -10.21613 -10.21571
 Alpha  occ. eigenvalues --   -1.08061  -1.05039  -0.91772  -0.88703  -0.83341
 Alpha  occ. eigenvalues --   -0.80095  -0.77139  -0.74846  -0.70846  -0.64573
 Alpha  occ. eigenvalues --   -0.63402  -0.62150  -0.57849  -0.54901  -0.52306
 Alpha  occ. eigenvalues --   -0.52021  -0.50884  -0.49129  -0.48150  -0.47095
 Alpha  occ. eigenvalues --   -0.46157  -0.45837  -0.44577  -0.44430  -0.43234
 Alpha  occ. eigenvalues --   -0.40606  -0.39081  -0.38733  -0.37945  -0.37523
 Alpha  occ. eigenvalues --   -0.37047  -0.36661  -0.34151  -0.33925  -0.33773
 Alpha  occ. eigenvalues --   -0.29225  -0.27730  -0.27535  -0.26791
 Alpha virt. eigenvalues --   -0.06069  -0.03724  -0.02961  -0.01212   0.00234
 Alpha virt. eigenvalues --    0.00364   0.01403   0.01795   0.02414   0.02513
 Alpha virt. eigenvalues --    0.03114   0.03298   0.03674   0.04421   0.04683

 Mulliken charges:
               1
     1  C   -0.110594
     2  O   -0.340655
     3  C   -0.190706
     4  C   -0.223908
     5  C    0.157676
     6  O   -0.357984
     7  C    0.435296
     8  C   -0.197644
     9  N   -0.422459
    10  C    0.038731
    11  C   -0.225193
    12  C   -0.252275
    13  C   -0.078712
    14  C   -0.076112
    15  C   -0.043666
    16  H    0.146489
    17  H    0.129554
    18  H    0.128463
    19  H    0.134467
    20  H    0.141953
    21  H    0.186375
    22  H    0.186083
    23  H    0.168210
    24  H    0.117481
    25  H    0.133078
    26  H    0.131750
    27  H    0.135832
    28  H    0.148471
 Sum of Mulliken charges =  -0.00000

 Dipole moment (field-independent basis, Debye):
    X=              1.5555    Y=             -5.0231    Z=             -1.1733  Tot=              5.3877
 Quadrupole moment (field-independent basis, Debye-Ang):
   XX=            -83.6613   YY=           -104.8193   ZZ=            -85.7127
   XY=             12.1534   XZ=              0.5305   YZ=             -4.0484

 Normal termination of Gaussian 16 at Wed Aug  6 23:10:25 2025.
