 Gaussian 16, Revision C.02,
 Gaussian 16:  ES64L-G16RevC.02  7-Dec-2021

 ----------------------------------------------------------
 # td=(50-50,nstates=3) b3lyp/6-31+g(d,p) geom=connectivity
 ----------------------------------------------------------

 -------------------
 Title Card Required
 -------------------
 Symbolic Z-matrix:
 Charge =  0 Multiplicity = 1

                         Standard orientation:
 ---------------------------------------------------------------------
 Center     Atomic      Atomic             Coordinates (Angstroms)
 Number     Number       Type             X           Y           Z
 ---------------------------------------------------------------------
      1          6           0       -5.749077   -1.043525   -1.532736
      2          6           0       -5.241894   -1.383658   -0.122292
      3          6           0       -5.925571   -0.509712    0.942503
      4          6           0       -3.700225   -1.384510    0.016913
      5          6           0       -2.978520   -0.019920   -0.148081
      6          6           0       -2.881817    0.383557   -1.560394
      7          7           0       -2.762762    0.675768   -2.678091
      8          6           0       -1.526317   -0.035102    0.430395
      9          6           0       -1.496683   -0.492686    1.824217
     10          7           0       -1.466052   -0.840728    2.932152
     11          6           0       -0.887558    1.386843    0.387981
     12          8           0       -1.585602    2.379745    0.484913
     13          6           0        0.580951    1.454857    0.242413
     14          6           0        1.283006    2.637299    0.203396
     15         16           0        2.959171    2.318235    0.024668
     16          6           0        2.608773    0.574914    0.004226
     17          6           0        3.667194   -0.436096   -0.123123
     18          6           0        3.362630   -1.784507    0.137957
     19          6           0        4.348953   -2.761727    0.023365
     20          6           0        5.650363   -2.411708   -0.351135
     21          6           0        5.960311   -1.074193   -0.612279
     22          6           0        4.976323   -0.092556   -0.500683
     23          7           0        1.336806    0.310094    0.129025
     24          1           0       -6.828248   -1.221026   -1.597034
     25          1           0       -5.575085    0.005849   -1.791595
     26          1           0       -5.261847   -1.657840   -2.297530
     27          1           0       -5.531476   -2.424465    0.082020
     28          1           0       -5.576221   -0.754273    1.951982
     29          1           0       -7.010337   -0.658505    0.919174
     30          1           0       -5.746745    0.558682    0.772693
     31          1           0       -3.461089   -1.754370    1.019833
     32          1           0       -3.268440   -2.098492   -0.694996
     33          1           0       -3.524983    0.767455    0.381065
     34          1           0       -0.894008   -0.717506   -0.147428
     35          1           0        0.884559    3.639663    0.271138
     36          1           0        2.354025   -2.048236    0.435561
     37          1           0        4.102561   -3.798676    0.231095
     38          1           0        6.417140   -3.175544   -0.438699
     39          1           0        6.966847   -0.794409   -0.907882
     40          1           0        5.230444    0.940596   -0.720865
 ---------------------------------------------------------------------

 SCF Done:  E(RB3LYP) =  -1333.84964069     A.U. after   17 cycles

 Excitation energies and oscillator strengths:

 Excited State   1:      Triplet-A      2.6265 eV  472.05 nm  f=0.0000  <S**2>=2.000
      82 -> 86        -0.17537
      85 -> 86         0.63090
      85 -> 87         0.20571
 This state for optimization and/or second-order correction.
 Total Energy, E(TD-HF/TD-DFT) =  -1333.75311817
 Copying the excited state density for this state as the 1-particle RhoCI density.

 Excited State   2:      Triplet-A      3.1741 eV  390.61 nm  f=0.0000  <S**2>=2.000
      82 -> 86         0.17116
      84 -> 88        -0.17771
      85 -> 86        -0.16916
      85 -> 87         0.61440

 Excited State   3:      Triplet-A      3.3234 eV  373.06 nm  f=0.0000  <S**2>=2.000
      83 -> 86         0.62149
      83 -> 87        -0.28593

 Excited State   4:      Singlet-A      3.8105 eV  325.38 nm  f=0.0013  <S**2>=0.000
      83 -> 86         0.65019
      83 -> 87        -0.23801

 Excited State   5:      Singlet-A      3.8570 eV  321.46 nm  f=0.0482  <S**2>=0.000
      85 -> 86         0.69579

 Excited State   6:      Singlet-A      4.3289 eV  286.41 nm  f=0.2774  <S**2>=0.000
      84 -> 86         0.40372
      85 -> 87         0.55761

 The electronic state is 1-A.
 Alpha  occ. eigenvalues --  -88.95586 -19.18226 -14.37435 -14.36014 -14.35033
 Alpha  occ. eigenvalues --  -10.32146 -10.29356 -10.27144 -10.26402 -10.26298
 Alpha  occ. eigenvalues --  -10.26144 -10.25299 -10.24159 -10.23762 -10.22493
 Alpha  occ. eigenvalues --  -10.22029 -10.21974 -10.21931 -10.21799 -10.21491
 Alpha  occ. eigenvalues --  -10.20897 -10.18637 -10.18162  -8.01534  -5.97924
 Alpha  occ. eigenvalues --   -5.97560  -5.97292  -1.08309  -1.00340  -0.93035
 Alpha  occ. eigenvalues --   -0.91971  -0.88676  -0.86309  -0.83880  -0.82151
 Alpha  occ. eigenvalues --   -0.80956  -0.77407  -0.76868  -0.74604  -0.69332
 Alpha  occ. eigenvalues --   -0.68440  -0.66415  -0.65477  -0.63016  -0.59478
 Alpha  occ. eigenvalues --   -0.58452  -0.56694  -0.55394  -0.54394  -0.53155
 Alpha  occ. eigenvalues --   -0.51443  -0.50150  -0.48465  -0.48215  -0.47113
 Alpha  occ. eigenvalues --   -0.46107  -0.45520  -0.44868  -0.44758  -0.43971
 Alpha  occ. eigenvalues --   -0.43761  -0.43047  -0.42365  -0.41199  -0.40585
 Alpha  occ. eigenvalues --   -0.39293  -0.39074  -0.38251  -0.38061  -0.37985
 Alpha  occ. eigenvalues --   -0.37091  -0.36908  -0.36177  -0.35489  -0.35068
 Alpha  occ. eigenvalues --   -0.34499  -0.34063  -0.33348  -0.32533  -0.32341
 Alpha  occ. eigenvalues --   -0.31399  -0.30856  -0.29050  -0.28001  -0.25472
 Alpha virt. eigenvalues --   -0.09880  -0.07824  -0.03647  -0.02074  -0.01377
 Alpha virt. eigenvalues --   -0.00781  -0.00414   0.00054   0.00632   0.00826
 Alpha virt. eigenvalues --    0.01219   0.01459   0.01865   0.02401   0.02532

 Mulliken charges:
               1
     1  C   -0.501727
     2  C    0.208648
     3  C   -0.549464
     4  C   -0.463923
     5  C    0.232794
     6  C   -0.124662
     7  N   -0.449632
     8  C    0.297587
     9  C   -0.058408
    10  N   -0.439925
    11  C    0.150967
    12  O   -0.382311
    13  C    0.408272
    14  C   -0.183494
    15  S    0.163014
    16  C   -0.361992
    17  C    0.320882
    18  C   -0.162221
    19  C   -0.192265
    20  C   -0.138412
    21  C   -0.057628
    22  C   -0.398177
    23  N    0.029161
    24  H    0.145361
    25  H    0.160394
    26  H    0.149544
    27  H    0.134038
    28  H    0.150598
    29  H    0.149099
    30  H    0.145301
    31  H    0.162246
    32  H    0.153861
    33  H    0.208813
    34  H    0.220603
    35  H    0.199723
    36  H    0.150217
    37  H    0.135572
    38  H    0.132616
    39  H    0.133782
    40  H    0.121148
 Sum of Mulliken charges =  -0.00000

 Dipole moment (field-independent basis, Debye):
    X=              3.7469    Y=             -1.3927    Z=             -0.3028  Tot=              4.0088
 Quadrupole moment (field-independent basis, Debye-Ang):
   XX=           -115.9330   YY=           -134.8455   ZZ=           -170.1633
   XY=              7.0767   XZ=             -6.4468   YZ=              5.4636

 Normal termination of Gaussian 16 at Wed Aug  6 23:32:47 2025.
