 Gaussian 16, Revision C.02,
 Gaussian 16:  ES64L-G16RevC.02  7-Dec-2021

 ----------------------------------------------------------
 # td=(50-50,nstates=3) b3lyp/6-31+g(d,p) geom=connectivity
 ----------------------------------------------------------

 -------------------
 Title Card Required
 -------------------
 Symbolic Z-matrix:
 Charge =  0 Multiplicity = 1

                         Standard orientation:
 ---------------------------------------------------------------------
 Center     Atomic      Atomic             Coordinates (Angstroms)
 Number     Number       Type             X           Y           Z
 ---------------------------------------------------------------------
      1          6           0       -5.533982    3.081516    0.085250
      2          6           0       -5.262404    1.763281   -0.070787
      3          6           0       -6.375430    0.890768   -0.342389
      4          7           0       -7.328526    0.266544   -0.576515
      5          6           0       -3.891458    1.253385   -0.008638
      6          6           0       -3.324203    0.002573   -0.013036
      7          6           0       -4.118157   -1.288809   -0.022606
      8          6           0       -4.001940   -2.051196   -1.358366
      9          6           0       -3.833251   -2.166463    1.213492
     10          6           0       -1.880248    0.230861    0.055429
     11          6           0       -0.699674   -0.452943    0.079848
     12          6           0       -0.351946   -1.882075   -0.013812
     13          8           0       -1.127616   -2.788383   -0.289032
     14          6           0        1.120643   -2.231975    0.276739
     15          7           0        2.078941   -1.334852   -0.355142
     16          6           0        2.351194   -1.607725   -1.769240
     17          6           0        2.979685   -0.402568   -2.448340
     18          7           0        4.187557    0.011273   -1.734319
     19          6           0        5.117146    0.858701   -2.476520
     20          6           0        4.068383    0.135151   -0.374296
     21          6           0        4.826328    0.825450    0.545953
     22          6           0        5.966826    1.633442    0.342633
     23          7           0        6.916412    2.307046    0.243983
     24          6           0        4.274476    0.604703    1.933314
     25          6           0        3.091239   -0.300747    1.691619
     26          6           0        2.266276   -0.722167    2.755733
     27          7           0        1.606149   -1.042146    3.666240
     28          6           0        2.984557   -0.580802    0.345601
     29          6           0       -1.713775    1.732210    0.123502
     30          8           0       -0.719273    2.404841    0.186884
     31          8           0       -2.968698    2.290749    0.074593
     32          1           0       -4.741350    3.794875    0.271868
     33          1           0       -6.553720    3.442858    0.023985
     34          1           0       -5.165071   -0.995694    0.064937
     35          1           0       -4.660064   -2.926369   -1.335047
     36          1           0       -4.319293   -1.418135   -2.194033
     37          1           0       -2.984074   -2.398722   -1.537371
     38          1           0       -4.532186   -3.009589    1.222920
     39          1           0       -3.981845   -1.598881    2.138454
     40          1           0       -2.822372   -2.573651    1.206782
     41          1           0        0.163148    0.199437    0.190124
     42          1           0        1.253901   -2.229566    1.360930
     43          1           0        1.278879   -3.259691   -0.069745
     44          1           0        1.403882   -1.845563   -2.262401
     45          1           0        3.011912   -2.482704   -1.868109
     46          1           0        2.251863    0.422578   -2.511194
     47          1           0        3.263028   -0.678551   -3.467554
     48          1           0        5.193103    0.477218   -3.497255
     49          1           0        4.784912    1.905999   -2.511600
     50          1           0        6.107505    0.823997   -2.023375
     51          1           0        3.975208    1.552035    2.401504
     52          1           0        5.011880    0.137985    2.600388
 ---------------------------------------------------------------------

 SCF Done:  E(RB3LYP) =  -1388.48173981     A.U. after   17 cycles

 Excitation energies and oscillator strengths:

 Excited State   1:      Triplet-A      1.3161 eV  942.09 nm  f=0.0000  <S**2>=2.000
     107 ->110         0.66445
     108 ->110         0.17542
     109 ->110        -0.16231
     107 <-110         0.16830
 This state for optimization and/or second-order correction.
 Total Energy, E(TD-HF/TD-DFT) =  -1388.43337555
 Copying the excited state density for this state as the 1-particle RhoCI density.

 Excited State   2:      Triplet-A      1.6621 eV  745.94 nm  f=0.0000  <S**2>=2.000
     107 ->110         0.20401
     108 ->110        -0.17700
     109 ->110         0.63931

 Excited State   3:      Singlet-A      1.7127 eV  723.92 nm  f=0.0199  <S**2>=0.000
     108 ->110        -0.14345
     109 ->110         0.68911

 Excited State   4:      Triplet-A      2.0422 eV  607.11 nm  f=0.0000  <S**2>=2.000
     106 ->110         0.22901
     107 ->110        -0.10339
     108 ->110         0.60494
     109 ->110         0.24458

 Excited State   5:      Singlet-A      2.1128 eV  586.83 nm  f=0.0092  <S**2>=0.000
     106 ->110         0.11076
     108 ->110         0.67790
     109 ->110         0.15194

 Excited State   6:      Singlet-A      2.8604 eV  433.45 nm  f=0.0020  <S**2>=0.000
     106 ->110         0.67696
     108 ->110        -0.12209

 The electronic state is 1-A.
 Alpha  occ. eigenvalues --  -19.25015 -19.19061 -19.18337 -14.41498 -14.40558
 Alpha  occ. eigenvalues --  -14.37234 -14.34756 -14.34258 -10.36124 -10.31764
 Alpha  occ. eigenvalues --  -10.31493 -10.28811 -10.28784 -10.28268 -10.27128
 Alpha  occ. eigenvalues --  -10.27059 -10.26873 -10.26558 -10.26309 -10.25614
 Alpha  occ. eigenvalues --  -10.25106 -10.24692 -10.24591 -10.24363 -10.24046
 Alpha  occ. eigenvalues --  -10.23956 -10.23881 -10.23087 -10.21999 -10.18500
 Alpha  occ. eigenvalues --  -10.18360  -1.16498  -1.08104  -1.08037  -1.02502
 Alpha  occ. eigenvalues --   -0.98189  -0.94196  -0.92034  -0.91195  -0.89172
 Alpha  occ. eigenvalues --   -0.88318  -0.86834  -0.82467  -0.81112  -0.79125
 Alpha  occ. eigenvalues --   -0.78304  -0.77451  -0.75082  -0.72845  -0.69524
 Alpha  occ. eigenvalues --   -0.69185  -0.68990  -0.68638  -0.66566  -0.65932
 Alpha  occ. eigenvalues --   -0.61672  -0.59269  -0.58875  -0.57857  -0.56513
 Alpha  occ. eigenvalues --   -0.55874  -0.54786  -0.53809  -0.51813  -0.51691
 Alpha  occ. eigenvalues --   -0.51147  -0.50129  -0.49752  -0.49082  -0.48658
 Alpha  occ. eigenvalues --   -0.47899  -0.47456  -0.47106  -0.46372  -0.45821
 Alpha  occ. eigenvalues --   -0.45201  -0.44317  -0.44127  -0.43274  -0.43209
 Alpha  occ. eigenvalues --   -0.42836  -0.42623  -0.42404  -0.42019  -0.41662
 Alpha  occ. eigenvalues --   -0.41382  -0.40281  -0.39285  -0.39196  -0.39103
 Alpha  occ. eigenvalues --   -0.38555  -0.37897  -0.37425  -0.37294  -0.36818
 Alpha  occ. eigenvalues --   -0.36696  -0.36197  -0.35596  -0.34385  -0.34062
 Alpha  occ. eigenvalues --   -0.33762  -0.32995  -0.32690  -0.32279  -0.31910
 Alpha  occ. eigenvalues --   -0.29064  -0.26206  -0.24476  -0.22788
 Alpha virt. eigenvalues --   -0.14670  -0.08860  -0.08122  -0.02893  -0.02688
 Alpha virt. eigenvalues --   -0.01452  -0.00595  -0.00571  -0.00498  -0.00388
 Alpha virt. eigenvalues --    0.00116   0.00367   0.00575   0.01248   0.01854

 Mulliken charges:
               1
     1  C   -0.308773
     2  C    0.313214
     3  C   -0.558960
     4  N   -0.450052
     5  C   -0.196700
     6  C    0.138834
     7  C    0.071501
     8  C   -0.589970
     9  C   -0.526682
    10  C    1.107275
    11  C    0.324062
    12  C   -0.016677
    13  O   -0.358112
    14  C   -0.326941
    15  N    0.112249
    16  C   -0.077682
    17  C   -0.235886
    18  N   -0.120888
    19  C   -0.237172
    20  C   -0.040653
    21  C    0.546228
    22  C    0.349670
    23  N   -0.612540
    24  C   -1.078685
    25  C    0.921159
    26  C   -0.275057
    27  N   -0.525614
    28  C   -0.541159
    29  C    0.532689
    30  O   -0.457673
    31  O   -0.333895
    32  H    0.187962
    33  H    0.175496
    34  H    0.121598
    35  H    0.147240
    36  H    0.141064
    37  H    0.177136
    38  H    0.148686
    39  H    0.142865
    40  H    0.168960
    41  H    0.174806
    42  H    0.188104
    43  H    0.176999
    44  H    0.155314
    45  H    0.165210
    46  H    0.165013
    47  H    0.146197
    48  H    0.141859
    49  H    0.170044
    50  H    0.179222
    51  H    0.190876
    52  H    0.188236
 Sum of Mulliken charges =  -0.00000

 Dipole moment (field-independent basis, Debye):
    X=             -0.9742    Y=             -0.8730    Z=             -5.5454  Tot=              5.6976
 Quadrupole moment (field-independent basis, Debye-Ang):
   XX=           -227.2870   YY=           -189.2794   ZZ=           -185.7887
   XY=            -36.2430   XZ=            -20.3789   YZ=              4.8057

 Normal termination of Gaussian 16 at Wed Aug  6 23:26:13 2025.
