 Gaussian 16, Revision C.02,
 Gaussian 16:  ES64L-G16RevC.02  7-Dec-2021

 ----------------------------------------------------------
 # td=(50-50,nstates=3) b3lyp/6-31+g(d,p) geom=connectivity
 ----------------------------------------------------------

 -------------------
 Title Card Required
 -------------------
 Symbolic Z-matrix:
 Charge =  0 Multiplicity = 1

                         Standard orientation:
 ---------------------------------------------------------------------
 Center     Atomic      Atomic             Coordinates (Angstroms)
 Number     Number       Type             X           Y           Z
 ---------------------------------------------------------------------
      1          6           0       -5.414722    3.227047   -0.547639
      2          6           0       -5.026377    1.830602   -0.392865
      3          6           0       -4.739341    0.656705   -0.267101
      4          6           0       -4.481844   -0.742677   -0.118457
      5         16           0       -5.749812   -1.840546   -0.074979
      6          7           0       -3.187984   -1.130661   -0.024567
      7          6           0       -1.994068   -0.287099    0.025165
      8          6           0       -1.455049   -0.146340    1.459446
      9          6           0       -0.149367    0.654399    1.479306
     10          7           0        0.857613    0.042603    0.608069
     11          6           0        2.151886    0.717297    0.711695
     12          6           0        3.322559   -0.135409    0.247323
     13          6           0        3.240237   -1.536345    0.256222
     14          6           0        4.313889   -2.337077   -0.133438
     15          6           0        5.511238   -1.746289   -0.543524
     16          6           0        5.627505   -0.356251   -0.553898
     17          6           0        4.541501    0.427429   -0.159350
     18         17           0        4.759367    2.182514   -0.165464
     19          6           0        0.383834   -0.017496   -0.779201
     20          6           0       -0.899449   -0.845142   -0.895471
     21          1           0       -5.996361    3.364799   -1.466123
     22          1           0       -6.041309    3.547111    0.292598
     23          1           0       -4.542477    3.887835   -0.593523
     24          1           0       -3.066995   -2.130019    0.102946
     25          1           0       -2.293428    0.701290   -0.338439
     26          1           0       -2.203679    0.344210    2.091292
     27          1           0       -1.271066   -1.144508    1.876702
     28          1           0        0.246781    0.685307    2.499760
     29          1           0       -0.355597    1.703293    1.180088
     30          1           0        2.313837    0.975907    1.766163
     31          1           0        2.151941    1.673803    0.162042
     32          1           0        2.304906   -1.982461    0.578338
     33          1           0        4.215361   -3.418375   -0.115518
     34          1           0        6.353689   -2.358221   -0.851434
     35          1           0        6.549723    0.124007   -0.862292
     36          1           0        1.167338   -0.463011   -1.398993
     37          1           0        0.202766    1.003727   -1.174035
     38          1           0       -0.681163   -1.884841   -0.616862
     39          1           0       -1.248493   -0.847556   -1.933942
 ---------------------------------------------------------------------

 SCF Done:  E(RB3LYP) =  -1589.03142566     A.U. after   16 cycles

 Excitation energies and oscillator strengths:

 Excited State   1:      Triplet-A      2.4436 eV  507.39 nm  f=0.0000  <S**2>=2.000
      80 -> 82         0.68686
      81 -> 82         0.16678
 This state for optimization and/or second-order correction.
 Total Energy, E(TD-HF/TD-DFT) =  -1588.94162640
 Copying the excited state density for this state as the 1-particle RhoCI density.

 Excited State   2:      Triplet-A      2.4539 eV  505.26 nm  f=0.0000  <S**2>=2.000
      80 -> 82        -0.16691
      81 -> 82         0.68492

 Excited State   3:      Singlet-A      2.7647 eV  448.46 nm  f=0.0001  <S**2>=0.000
      81 -> 82         0.70608

 Excited State   4:      Triplet-A      3.6489 eV  339.78 nm  f=0.0000  <S**2>=2.000
      77 -> 83        -0.44907
      78 -> 84        -0.51079

 Excited State   5:      Singlet-A      4.1269 eV  300.43 nm  f=0.2144  <S**2>=0.000
      80 -> 82         0.66931
      81 -> 91        -0.15123

 Excited State   6:      Singlet-A      4.2399 eV  292.42 nm  f=0.0021  <S**2>=0.000
      79 -> 82         0.70325

 The electronic state is 1-A.
 Alpha  occ. eigenvalues -- -101.56103 -88.83587 -14.38894 -14.35082 -10.29743
 Alpha  occ. eigenvalues --  -10.26435 -10.24866 -10.23345 -10.23000 -10.22815
 Alpha  occ. eigenvalues --  -10.22682 -10.22363 -10.21983 -10.21444 -10.21158
 Alpha  occ. eigenvalues --  -10.20886 -10.20704 -10.20696 -10.20653 -10.20421
 Alpha  occ. eigenvalues --   -9.47593  -7.89654  -7.23986  -7.23041  -7.23006
 Alpha  occ. eigenvalues --   -5.86172  -5.85696  -5.85237  -0.97596  -0.95013
 Alpha  occ. eigenvalues --   -0.90093  -0.84550  -0.83147  -0.80481  -0.78475
 Alpha  occ. eigenvalues --   -0.77551  -0.75832  -0.74612  -0.71789  -0.69608
 Alpha  occ. eigenvalues --   -0.65278  -0.64671  -0.63669  -0.61824  -0.59901
 Alpha  occ. eigenvalues --   -0.57963  -0.54352  -0.52688  -0.52031  -0.49385
 Alpha  occ. eigenvalues --   -0.48655  -0.47977  -0.47744  -0.46721  -0.45757
 Alpha  occ. eigenvalues --   -0.45564  -0.44936  -0.44872  -0.44149  -0.43727
 Alpha  occ. eigenvalues --   -0.42320  -0.42072  -0.40657  -0.39445  -0.38758
 Alpha  occ. eigenvalues --   -0.38095  -0.37165  -0.36856  -0.36734  -0.36327
 Alpha  occ. eigenvalues --   -0.34623  -0.34336  -0.34041  -0.32263  -0.28712
 Alpha  occ. eigenvalues --   -0.28128  -0.26728  -0.25627  -0.23985  -0.22624
 Alpha  occ. eigenvalues --   -0.21109
 Alpha virt. eigenvalues --   -0.06555  -0.03053  -0.02835  -0.01013  -0.00692
 Alpha virt. eigenvalues --    0.00004   0.00399   0.01016   0.01426   0.01706
 Alpha virt. eigenvalues --    0.02347   0.02637   0.03488   0.03632   0.03961

 Mulliken charges:
               1
     1  C   -0.873486
     2  C    0.345829
     3  C    0.945346
     4  C   -0.994124
     5  S   -0.110358
     6  N    0.040674
     7  C   -1.021931
     8  C    0.117144
     9  C   -0.185140
    10  N   -0.103014
    11  C   -1.150559
    12  C    0.251501
    13  C   -0.153053
    14  C   -0.152330
    15  C    0.053193
    16  C   -0.109626
    17  C    0.162853
    18  Cl   0.257836
    19  C   -0.201237
    20  C   -0.145777
    21  H    0.187322
    22  H    0.186695
    23  H    0.176912
    24  H    0.317189
    25  H    0.152439
    26  H    0.151104
    27  H    0.152859
    28  H    0.132870
    29  H    0.130160
    30  H    0.153628
    31  H    0.147439
    32  H    0.150500
    33  H    0.129641
    34  H    0.131477
    35  H    0.144692
    36  H    0.148540
    37  H    0.130021
    38  H    0.148724
    39  H    0.154048
 Sum of Mulliken charges =  -0.00000

 Dipole moment (field-independent basis, Debye):
    X=              3.6219    Y=              2.4598    Z=              0.0263  Tot=              4.3783
 Quadrupole moment (field-independent basis, Debye-Ang):
   XX=           -165.8385   YY=           -128.0880   ZZ=           -135.5213
   XY=            -31.7530   XZ=             -1.7496   YZ=              0.0645

 Normal termination of Gaussian 16 at Mon Sep 22 00:29:46 2025.
