 Gaussian 16, Revision C.02,
 Gaussian 16:  ES64L-G16RevC.02  7-Dec-2021

 ----------------------------------------------------------
 # td=(50-50,nstates=3) b3lyp/6-31+g(d,p) geom=connectivity
 ----------------------------------------------------------

 -------------------
 Title Card Required
 -------------------
 Symbolic Z-matrix:
 Charge =  0 Multiplicity = 1

                         Standard orientation:
 ---------------------------------------------------------------------
 Center     Atomic      Atomic             Coordinates (Angstroms)
 Number     Number       Type             X           Y           Z
 ---------------------------------------------------------------------
      1          6           0       -2.241478    0.169489    2.527777
      2          6           0       -3.065418    0.236346    1.227328
      3          6           0       -2.826290    1.495085    0.381612
      4          6           0       -2.028546    2.560234    0.820936
      5          6           0       -1.876148    3.715544    0.046022
      6          6           0       -2.522089    3.830343   -1.185640
      7          6           0       -3.327402    2.778193   -1.634109
      8          6           0       -3.476351    1.628181   -0.857804
      9          6           0       -2.998916   -1.070302    0.424585
     10          6           0       -4.200172   -1.777906    0.250071
     11          6           0       -4.260424   -2.998604   -0.423422
     12          6           0       -3.091019   -3.552476   -0.941265
     13          6           0       -1.885381   -2.870572   -0.777131
     14          6           0       -1.814677   -1.635087   -0.109802
     15          6           0       -0.452703   -1.016931   -0.004688
     16          6           0        0.518691   -1.602526    0.824792
     17          6           0        1.814367   -1.091943    0.892432
     18          6           0        2.173028    0.015790    0.115763
     19          6           0        3.590358    0.584109    0.145267
     20          6           0        4.131223    0.685531    1.509522
     21          7           0        4.533646    0.776729    2.593786
     22          6           0        4.570219   -0.203689   -0.751222
     23          9           0        4.726332   -1.480497   -0.348009
     24          9           0        4.124079   -0.223730   -2.025319
     25          9           0        5.791534    0.376366   -0.758025
     26          6           0        1.216494    0.600484   -0.720030
     27          6           0       -0.080836    0.089972   -0.780860
     28          1           0       -2.482810    1.012449    3.183199
     29          1           0       -2.482372   -0.750254    3.069096
     30          1           0       -1.164699    0.178861    2.342832
     31          1           0       -4.113357    0.309721    1.548853
     32          1           0       -1.508558    2.497464    1.770406
     33          1           0       -1.249757    4.525188    0.410552
     34          1           0       -2.404431    4.727087   -1.787115
     35          1           0       -3.841135    2.853020   -2.588639
     36          1           0       -4.101194    0.817603   -1.222712
     37          1           0       -5.114399   -1.359159    0.663718
     38          1           0       -5.212072   -3.509981   -0.535665
     39          1           0       -3.111574   -4.502498   -1.466967
     40          1           0       -0.969858   -3.293579   -1.181338
     41          1           0        0.251466   -2.462578    1.431674
     42          1           0        2.540318   -1.555030    1.553857
     43          1           0        3.578747    1.596544   -0.275255
     44          1           0        1.480120    1.457711   -1.333648
     45          1           0       -0.806646    0.555495   -1.437969
 ---------------------------------------------------------------------

 SCF Done:  E(RB3LYP) =  -1241.63695488     A.U. after   16 cycles

 Excitation energies and oscillator strengths:

 Excited State   1:      Triplet-A      3.5682 eV  347.47 nm  f=0.0000  <S**2>=2.000
      90 -> 96         0.13854
      90 -> 97        -0.15168
      90 -> 99         0.14782
      91 -> 96        -0.19613
      91 -> 97        -0.15938
      91 ->100        -0.12741
      93 -> 96         0.25031
      93 -> 97        -0.13071
      93 -> 98        -0.10568
      93 -> 99        -0.10601
      94 -> 97        -0.15525
      95 -> 96         0.32603
      95 -> 99        -0.11398
 This state for optimization and/or second-order correction.
 Total Energy, E(TD-HF/TD-DFT) =  -1241.50582596
 Copying the excited state density for this state as the 1-particle RhoCI density.

 Excited State   2:      Triplet-A      3.6873 eV  336.25 nm  f=0.0000  <S**2>=2.000
      92 -> 98         0.19804
      92 ->100         0.16603
      93 ->100         0.15577
      94 -> 98         0.27050
      94 ->101        -0.14489
      94 ->102         0.17887
      95 -> 97         0.21287
      95 -> 99         0.15718
      95 ->100        -0.32273

 Excited State   3:      Triplet-A      3.7145 eV  333.78 nm  f=0.0000  <S**2>=2.000
      90 -> 96        -0.20841
      90 -> 97         0.22504
      91 -> 96         0.26958
      91 -> 97         0.13176
      92 -> 98         0.12371
      92 -> 99        -0.12897
      93 -> 97        -0.11665
      93 -> 98        -0.15228
      93 -> 99        -0.19616
      94 -> 98        -0.12255
      95 -> 99        -0.25175

 Excited State   4:      Singlet-A      4.8044 eV  258.06 nm  f=0.0684  <S**2>=0.000
      95 -> 96         0.68562

 Excited State   5:      Singlet-A      4.9051 eV  252.77 nm  f=0.0136  <S**2>=0.000
      91 -> 96         0.12752
      92 -> 96        -0.10991
      93 -> 96         0.13263
      93 -> 97         0.14104
      94 -> 96         0.23894
      95 -> 96        -0.10378
      95 -> 97         0.56267

 Excited State   6:      Singlet-A      5.0861 eV  243.77 nm  f=0.0009  <S**2>=0.000
      90 -> 96        -0.11046
      92 -> 96        -0.18737
      92 ->100         0.10283
      93 -> 96         0.26965
      94 -> 96        -0.15669
      94 -> 97        -0.23923
      94 -> 99        -0.13457
      94 ->100         0.11647
      95 -> 98         0.44778

 The electronic state is 1-A.
 Alpha  occ. eigenvalues --  -24.76782 -24.76721 -24.76619 -14.36479 -10.47304
 Alpha  occ. eigenvalues --  -10.28785 -10.25679 -10.23729 -10.22383 -10.21949
 Alpha  occ. eigenvalues --  -10.21827 -10.21770 -10.21658 -10.21579 -10.21399
 Alpha  occ. eigenvalues --  -10.21213 -10.21078 -10.20587 -10.20567 -10.20479
 Alpha  occ. eigenvalues --  -10.20399 -10.20274 -10.20245 -10.20125 -10.19908
 Alpha  occ. eigenvalues --  -10.19852 -10.18790  -1.34053  -1.25410  -1.25259
 Alpha  occ. eigenvalues --   -0.93480  -0.89633  -0.87919  -0.86474  -0.84722
 Alpha  occ. eigenvalues --   -0.81153  -0.78833  -0.77121  -0.75724  -0.75330
 Alpha  occ. eigenvalues --   -0.74159  -0.72810  -0.70892  -0.65779  -0.63958
 Alpha  occ. eigenvalues --   -0.63854  -0.62202  -0.61859  -0.61364  -0.61087
 Alpha  occ. eigenvalues --   -0.60423  -0.59695  -0.57453  -0.54623  -0.53179
 Alpha  occ. eigenvalues --   -0.52200  -0.51292  -0.49387  -0.49257  -0.48872
 Alpha  occ. eigenvalues --   -0.48163  -0.46745  -0.46563  -0.46090  -0.45884
 Alpha  occ. eigenvalues --   -0.45424  -0.45171  -0.44335  -0.44296  -0.44083
 Alpha  occ. eigenvalues --   -0.43579  -0.43540  -0.43199  -0.42785  -0.40672
 Alpha  occ. eigenvalues --   -0.39310  -0.39087  -0.38522  -0.38373  -0.38098
 Alpha  occ. eigenvalues --   -0.37577  -0.36937  -0.36275  -0.35723  -0.35363
 Alpha  occ. eigenvalues --   -0.34954  -0.34866  -0.34517  -0.33367  -0.27992
 Alpha  occ. eigenvalues --   -0.27711  -0.26463  -0.26266  -0.26037  -0.24699
 Alpha virt. eigenvalues --   -0.04766  -0.04025  -0.02638  -0.02327  -0.02022
 Alpha virt. eigenvalues --   -0.01428  -0.01275  -0.00416   0.00143   0.00614
 Alpha virt. eigenvalues --    0.00721   0.01078   0.01379   0.01926   0.02627

 Mulliken charges:
               1
     1  C   -0.525698
     2  C    0.273409
     3  C    0.700823
     4  C   -0.248814
     5  C   -0.281067
     6  C   -0.137915
     7  C   -0.284252
     8  C   -0.291258
     9  C   -0.226512
    10  C   -0.105780
    11  C   -0.289713
    12  C   -0.008053
    13  C   -0.279240
    14  C   -0.043565
    15  C   -0.069456
    16  C   -0.142644
    17  C   -0.370685
    18  C   -0.164705
    19  C    0.283712
    20  C   -0.093593
    21  N   -0.428902
    22  C    0.998634
    23  F   -0.282589
    24  F   -0.282793
    25  F   -0.287621
    26  C    0.303976
    27  C   -0.150459
    28  H    0.145718
    29  H    0.149091
    30  H    0.169689
    31  H    0.132289
    32  H    0.111171
    33  H    0.120102
    34  H    0.123325
    35  H    0.123948
    36  H    0.127591
    37  H    0.110559
    38  H    0.128152
    39  H    0.129303
    40  H    0.129251
    41  H    0.132046
    42  H    0.142929
    43  H    0.201500
    44  H    0.120894
    45  H    0.137202
 Sum of Mulliken charges =  -0.00000

 Dipole moment (field-independent basis, Debye):
    X=             -4.1335    Y=              0.1210    Z=             -1.8922  Tot=              4.5476
 Quadrupole moment (field-independent basis, Debye-Ang):
   XX=           -172.5327   YY=           -148.1361   ZZ=           -164.4603
   XY=              5.6211   XZ=             -8.9613   YZ=             -4.6649

 Normal termination of Gaussian 16 at Wed Aug  6 23:41:26 2025.
