 Gaussian 16, Revision C.02,
 Gaussian 16:  ES64L-G16RevC.02  7-Dec-2021

 ----------------------------------------------------------
 # td=(50-50,nstates=3) b3lyp/6-31+g(d,p) geom=connectivity
 ----------------------------------------------------------

 -------------------
 Title Card Required
 -------------------
 Symbolic Z-matrix:
 Charge =  0 Multiplicity = 1

                         Standard orientation:
 ---------------------------------------------------------------------
 Center     Atomic      Atomic             Coordinates (Angstroms)
 Number     Number       Type             X           Y           Z
 ---------------------------------------------------------------------
      1          6           0        3.214710   -1.359692    1.254216
      2          6           0        2.507825   -0.527266    0.172592
      3          6           0        3.307191    0.748660   -0.126539
      4          8           0        2.377653   -1.315768   -1.031808
      5          6           0        1.054920   -0.263108    0.617353
      6          6           0        0.135879    0.438073   -0.430086
      7          6           0        0.340056    1.894935   -0.450726
      8          7           0        0.496262    3.046323   -0.447912
      9          6           0       -1.337013    0.092293   -0.199325
     10          6           0       -2.156974    0.852207    0.643759
     11          6           0       -3.482140    0.471763    0.873197
     12          6           0       -4.002600   -0.671358    0.262028
     13          6           0       -3.190296   -1.432368   -0.583369
     14          6           0       -1.866455   -1.051728   -0.812471
     15          1           0        2.673512   -2.293209    1.435187
     16          1           0        4.234332   -1.610559    0.938904
     17          1           0        3.285182   -0.806357    2.197058
     18          1           0        2.873746    1.311605   -0.955925
     19          1           0        4.338771    0.489139   -0.394887
     20          1           0        3.347554    1.407061    0.747070
     21          1           0        3.257637   -1.475107   -1.398648
     22          1           0        0.601156   -1.236235    0.827976
     23          1           0        1.051484    0.305140    1.553287
     24          1           0        0.426478    0.058044   -1.416242
     25          1           0       -1.767635    1.752531    1.110747
     26          1           0       -4.107616    1.074097    1.525681
     27          1           0       -5.033732   -0.963630    0.437627
     28          1           0       -3.587474   -2.318516   -1.070061
     29          1           0       -1.239063   -1.646591   -1.471694
 ---------------------------------------------------------------------

 SCF Done:  E(RB3LYP) =  -596.319900290     A.U. after   15 cycles

 Excitation energies and oscillator strengths:

 Excited State   1:      Triplet-A      3.7231 eV  333.01 nm  f=0.0000  <S**2>=2.000
      50 -> 52        -0.22779
      50 -> 53         0.41182
      51 -> 52         0.46021
      51 -> 53         0.23022
 This state for optimization and/or second-order correction.
 Total Energy, E(TD-HF/TD-DFT) =  -596.183077749
 Copying the excited state density for this state as the 1-particle RhoCI density.

 Excited State   2:      Triplet-A      4.6189 eV  268.43 nm  f=0.0000  <S**2>=2.000
      50 -> 52        -0.20620
      50 -> 53        -0.38597
      51 -> 52         0.41434
      51 -> 53        -0.35724

 Excited State   3:      Triplet-A      4.6211 eV  268.30 nm  f=0.0000  <S**2>=2.000
      50 -> 52         0.41002
      50 -> 53        -0.30474
      51 -> 52         0.26480
      51 -> 53         0.39907

 Excited State   4:      Singlet-A      5.2847 eV  234.61 nm  f=0.0005  <S**2>=0.000
      50 -> 52        -0.42684
      50 -> 53        -0.21755
      51 -> 52        -0.25470
      51 -> 53         0.44902

 Excited State   5:      Singlet-A      5.8892 eV  210.53 nm  f=0.0462  <S**2>=0.000
      50 -> 52        -0.21670
      50 -> 53         0.34290
      51 -> 52         0.51554
      51 -> 53         0.25233

 Excited State   6:      Singlet-A      6.1702 eV  200.94 nm  f=0.0066  <S**2>=0.000
      51 -> 54         0.62745
      51 -> 55         0.30489

 The electronic state is 1-A.
 Alpha  occ. eigenvalues --  -19.16912 -14.34082 -10.26560 -10.24588 -10.23325
 Alpha  occ. eigenvalues --  -10.21956 -10.21107 -10.20533 -10.20471 -10.20461
 Alpha  occ. eigenvalues --  -10.20360 -10.20346 -10.19283 -10.18975  -1.03859
 Alpha  occ. eigenvalues --   -0.91198  -0.87354  -0.82992  -0.79237  -0.75802
 Alpha  occ. eigenvalues --   -0.73899  -0.70739  -0.68091  -0.62150  -0.60611
 Alpha  occ. eigenvalues --   -0.59199  -0.53745  -0.52134  -0.49396  -0.48610
 Alpha  occ. eigenvalues --   -0.46962  -0.46060  -0.44799  -0.43572  -0.43001
 Alpha  occ. eigenvalues --   -0.42546  -0.41729  -0.40020  -0.39074  -0.37819
 Alpha  occ. eigenvalues --   -0.37237  -0.37055  -0.36545  -0.35873  -0.35397
 Alpha  occ. eigenvalues --   -0.34238  -0.32819  -0.32200  -0.29159  -0.26475
 Alpha  occ. eigenvalues --   -0.25918
 Alpha virt. eigenvalues --   -0.02581  -0.02287  -0.01119   0.00384   0.01365
 Alpha virt. eigenvalues --    0.01992   0.02373   0.02755   0.02772   0.03454
 Alpha virt. eigenvalues --    0.03724   0.04237   0.04447   0.05137   0.05848

 Mulliken charges:
               1
     1  C   -0.369167
     2  C    0.296166
     3  C   -0.537008
     4  O   -0.521477
     5  C   -0.519147
     6  C    0.436565
     7  C    0.074186
     8  N   -0.495377
     9  C   -0.050676
    10  C   -0.262466
    11  C   -0.104543
    12  C   -0.068577
    13  C   -0.258804
    14  C   -0.068207
    15  H    0.158957
    16  H    0.141897
    17  H    0.153802
    18  H    0.170655
    19  H    0.137062
    20  H    0.161836
    21  H    0.351819
    22  H    0.168245
    23  H    0.158121
    24  H    0.202071
    25  H    0.132789
    26  H    0.129632
    27  H    0.126307
    28  H    0.128265
    29  H    0.127073
 Sum of Mulliken charges =  -0.00000

 Dipole moment (field-independent basis, Debye):
    X=              1.0840    Y=             -3.5311    Z=              0.9843  Tot=              3.8226
 Quadrupole moment (field-independent basis, Debye-Ang):
   XX=            -70.1004   YY=            -99.5326   ZZ=            -84.3590
   XY=             -2.1223   XZ=             -1.8470   YZ=              4.7825

 Normal termination of Gaussian 16 at Wed Aug  6 23:36:08 2025.
