 Gaussian 16, Revision C.02,
 Gaussian 16:  ES64L-G16RevC.02  7-Dec-2021

 ----------------------------------------------------------
 # td=(50-50,nstates=3) b3lyp/6-31+g(d,p) geom=connectivity
 ----------------------------------------------------------

 -------------------
 Title Card Required
 -------------------
 Symbolic Z-matrix:
 Charge =  0 Multiplicity = 1

                         Standard orientation:
 ---------------------------------------------------------------------
 Center     Atomic      Atomic             Coordinates (Angstroms)
 Number     Number       Type             X           Y           Z
 ---------------------------------------------------------------------
      1          6           0       -3.284189   -4.323662   -0.234957
      2          6           0       -2.764375   -2.908040   -0.131701
      3          6           0       -3.311710   -2.003625    0.783684
      4          6           0       -2.835890   -0.693170    0.910680
      5          6           0       -3.491956    0.230814    1.913469
      6          6           0       -1.765714   -0.254186    0.093133
      7          6           0       -1.245074    1.142025    0.232261
      8          6           0       -1.574061    2.086396   -0.670872
      9          7           0       -1.108342    3.406227   -0.644528
     10          6           0       -1.855602    4.418584   -1.376965
     11          6           0       -0.398197    3.796214    0.496407
     12          6           0       -0.017632    2.938262    1.456600
     13          6           0       -0.318888    1.458900    1.400338
     14          6           0       -1.201441   -1.158268   -0.837465
     15          6           0       -0.038411   -0.771344   -1.739655
     16          6           0        1.325809   -0.732816   -1.061476
     17          6           0        2.212644    0.323144   -1.308237
     18          6           0        3.486018    0.356971   -0.733554
     19          6           0        3.878367   -0.685525    0.103692
     20         17           0        5.479988   -0.656692    0.837587
     21          6           0        3.017968   -1.750541    0.371987
     22          6           0        1.749315   -1.764029   -0.210178
     23          6           0       -1.713789   -2.459671   -0.936823
     24          1           0       -4.374151   -4.357861   -0.134756
     25          1           0       -3.018109   -4.778063   -1.194175
     26          1           0       -2.865829   -4.958050    0.556872
     27          1           0       -4.143859   -2.320585    1.409660
     28          1           0       -4.458915   -0.167665    2.233604
     29          1           0       -2.875433    0.353274    2.812479
     30          1           0       -3.649701    1.230097    1.497502
     31          1           0       -2.230855    1.857060   -1.505453
     32          1           0       -2.114924    4.036064   -2.368062
     33          1           0       -2.783664    4.717722   -0.864172
     34          1           0       -1.231478    5.306574   -1.510662
     35          1           0       -0.157333    4.853681    0.543474
     36          1           0        0.557581    3.321112    2.294132
     37          1           0        0.611162    0.874838    1.306916
     38          1           0       -0.766941    1.120281    2.347535
     39          1           0        0.006924   -1.495790   -2.563191
     40          1           0       -0.219562    0.203906   -2.198541
     41          1           0        1.904732    1.142005   -1.953016
     42          1           0        4.159752    1.184263   -0.928852
     43          1           0        3.334138   -2.554279    1.028293
     44          1           0        1.077432   -2.588474    0.010566
     45          1           0       -1.281525   -3.138519   -1.669629
 ---------------------------------------------------------------------

 SCF Done:  E(RB3LYP) =  -1328.47459730     A.U. after   16 cycles

 Excitation energies and oscillator strengths:

 Excited State   1:      Triplet-A      2.8104 eV  441.16 nm  f=0.0000  <S**2>=2.000
      86 -> 87         0.30500
      86 -> 88         0.11126
      86 -> 89        -0.33633
      86 -> 90         0.21817
      86 -> 91        -0.10968
      86 -> 92         0.40620
 This state for optimization and/or second-order correction.
 Total Energy, E(TD-HF/TD-DFT) =  -1328.37131739
 Copying the excited state density for this state as the 1-particle RhoCI density.

 Excited State   2:      Triplet-A      3.5192 eV  352.30 nm  f=0.0000  <S**2>=2.000
      83 -> 89        -0.18033
      83 -> 90        -0.10406
      83 -> 91         0.11741
      84 -> 87         0.17547
      84 -> 90         0.17539
      84 -> 91        -0.12891
      84 -> 92        -0.14979
      85 -> 89        -0.39376
      85 -> 92        -0.16559
      86 -> 89        -0.24597
      86 -> 92        -0.17572

 Excited State   3:      Triplet-A      3.5964 eV  344.75 nm  f=0.0000  <S**2>=2.000
      81 -> 88        -0.29089
      82 -> 88         0.22948
      83 -> 87        -0.30499
      83 -> 90         0.13146
      84 -> 87        -0.25267
      85 -> 87         0.23248
      85 -> 88         0.11462
      86 -> 88         0.18511

 Excited State   4:      Singlet-A      3.6596 eV  338.79 nm  f=0.0204  <S**2>=0.000
      86 -> 87         0.67689
      86 -> 89        -0.14370

 Excited State   5:      Singlet-A      3.7306 eV  332.34 nm  f=0.0090  <S**2>=0.000
      86 -> 87        -0.12025
      86 -> 88         0.69119

 Excited State   6:      Singlet-A      3.8470 eV  322.29 nm  f=0.0317  <S**2>=0.000
      86 -> 87         0.13217
      86 -> 88         0.10164
      86 -> 89         0.68286

 The electronic state is 1-A.
 Alpha  occ. eigenvalues -- -101.54999 -14.36919 -10.25339 -10.22918 -10.21898
 Alpha  occ. eigenvalues --  -10.21888 -10.20785 -10.20546 -10.20532 -10.20086
 Alpha  occ. eigenvalues --  -10.20071 -10.20004 -10.19987 -10.19955 -10.19704
 Alpha  occ. eigenvalues --  -10.19598 -10.18974 -10.18840 -10.18759 -10.18580
 Alpha  occ. eigenvalues --  -10.18482 -10.18132 -10.18017  -9.46506  -7.22906
 Alpha  occ. eigenvalues --   -7.21943  -7.21918  -0.96331  -0.89071  -0.86742
 Alpha  occ. eigenvalues --   -0.84094  -0.81235  -0.78994  -0.78230  -0.75955
 Alpha  occ. eigenvalues --   -0.75844  -0.74190  -0.71604  -0.69469  -0.68480
 Alpha  occ. eigenvalues --   -0.67496  -0.63610  -0.62291  -0.61784  -0.59502
 Alpha  occ. eigenvalues --   -0.57275  -0.56471  -0.52259  -0.50878  -0.49945
 Alpha  occ. eigenvalues --   -0.48889  -0.48162  -0.47408  -0.46485  -0.46027
 Alpha  occ. eigenvalues --   -0.45720  -0.43553  -0.43220  -0.43030  -0.42544
 Alpha  occ. eigenvalues --   -0.42200  -0.41887  -0.41389  -0.41066  -0.40716
 Alpha  occ. eigenvalues --   -0.40401  -0.40122  -0.39354  -0.38933  -0.37203
 Alpha  occ. eigenvalues --   -0.36895  -0.36329  -0.36022  -0.35380  -0.34231
 Alpha  occ. eigenvalues --   -0.33673  -0.33274  -0.32365  -0.32109  -0.31200
 Alpha  occ. eigenvalues --   -0.26424  -0.26399  -0.24463  -0.23965  -0.23410
 Alpha  occ. eigenvalues --   -0.18183
 Alpha virt. eigenvalues --   -0.02405  -0.02325  -0.01550  -0.00772  -0.00413
 Alpha virt. eigenvalues --   -0.00108   0.00558   0.01002   0.01323   0.01802
 Alpha virt. eigenvalues --    0.02053   0.02295   0.02578   0.03256   0.03383

 Mulliken charges:
               1
     1  C   -0.547884
     2  C    0.406907
     3  C   -0.633785
     4  C    0.636661
     5  C   -0.576488
     6  C    0.193812
     7  C   -0.189735
     8  C   -0.843181
     9  N    0.097061
    10  C   -0.163729
    11  C    0.018494
    12  C   -0.230180
    13  C   -0.264946
    14  C   -0.038264
    15  C   -0.384913
    16  C    0.364841
    17  C    0.091763
    18  C   -0.351013
    19  C    0.083378
    20  Cl   0.196653
    21  C   -0.452480
    22  C   -0.338365
    23  C   -0.114628
    24  H    0.153604
    25  H    0.149894
    26  H    0.164753
    27  H    0.112017
    28  H    0.141078
    29  H    0.159233
    30  H    0.168438
    31  H    0.110939
    32  H    0.141837
    33  H    0.150136
    34  H    0.143967
    35  H    0.116751
    36  H    0.118465
    37  H    0.163545
    38  H    0.130923
    39  H    0.147925
    40  H    0.140564
    41  H    0.115681
    42  H    0.139765
    43  H    0.140729
    44  H    0.131507
    45  H    0.098271
 Sum of Mulliken charges =  -0.00000

 Dipole moment (field-independent basis, Debye):
    X=             -2.9185    Y=              1.1839    Z=             -1.2947  Tot=              3.4053
 Quadrupole moment (field-independent basis, Debye-Ang):
   XX=           -156.0921   YY=           -129.1893   ZZ=           -142.6143
   XY=              1.6333   XZ=             -0.9412   YZ=             -5.1249

 Normal termination of Gaussian 16 at Mon Sep 22 00:46:21 2025.
