 Gaussian 16, Revision C.02,
 Gaussian 16:  ES64L-G16RevC.02  7-Dec-2021

 ----------------------------------------------------------
 # td=(50-50,nstates=3) b3lyp/6-31+g(d,p) geom=connectivity
 ----------------------------------------------------------

 -------------------
 Title Card Required
 -------------------
 Symbolic Z-matrix:
 Charge =  0 Multiplicity = 1

                         Standard orientation:
 ---------------------------------------------------------------------
 Center     Atomic      Atomic             Coordinates (Angstroms)
 Number     Number       Type             X           Y           Z
 ---------------------------------------------------------------------
      1          6           0        8.066960    0.939200    0.136514
      2          7           0        7.325992   -0.312814    0.168658
      3          6           0        7.967856   -1.474355    0.765259
      4          6           0        5.948265   -0.295772    0.016716
      5          6           0        5.165996   -1.457059    0.236092
      6          6           0        3.789666   -1.442478    0.052093
      7          6           0        3.111381   -0.274766   -0.350830
      8          6           0        1.699903   -0.259163   -0.535987
      9          6           0        0.493090   -0.226707   -0.700597
     10          6           0       -0.924564   -0.173758   -0.899327
     11          6           0       -1.443764    0.961374   -1.357999
     12          6           0       -1.939522    2.084400   -1.825556
     13          6           0       -2.407281    3.234899   -1.021751
     14          6           0       -2.939982    4.361526   -1.671033
     15          6           0       -3.391374    5.466590   -0.946055
     16          6           0       -3.321369    5.471840    0.444665
     17          6           0       -2.788960    4.349174    1.107233
     18          6           0       -2.710873    4.342820    2.541845
     19          7           0       -2.652322    4.346204    3.704287
     20          6           0       -2.335649    3.240798    0.380111
     21          6           0       -1.752810   -1.374240   -0.587502
     22          6           0       -3.138014   -1.391178   -0.817628
     23          6           0       -3.914008   -2.504241   -0.522609
     24          6           0       -3.335321   -3.680126    0.017862
     25          7           0       -4.100901   -4.808879    0.282856
     26          6           0       -3.515369   -5.900837    1.045418
     27          6           0       -5.552350   -4.709323    0.251705
     28          6           0       -1.942583   -3.654173    0.260990
     29          6           0       -1.178730   -2.529981   -0.040931
     30          6           0        3.885815    0.885082   -0.556400
     31          6           0        5.262393    0.881076   -0.374959
     32          1           0        9.131534    0.725496    0.241129
     33          1           0        7.927200    1.454515   -0.820213
     34          1           0        7.771566    1.627708    0.943849
     35          1           0        9.047694   -1.319928    0.772332
     36          1           0        7.637979   -1.656587    1.800269
     37          1           0        7.768594   -2.378278    0.179003
     38          1           0        5.632374   -2.381342    0.553036
     39          1           0        3.222533   -2.351574    0.226807
     40          1           0       -2.025623    2.207245   -2.908756
     41          1           0       -2.999204    4.368710   -2.756234
     42          1           0       -3.799027    6.326398   -1.468879
     43          1           0       -3.668622    6.323792    1.019021
     44          1           0       -1.925221    2.383105    0.903126
     45          1           0       -3.622446   -0.512421   -1.233845
     46          1           0       -4.978206   -2.454480   -0.716217
     47          1           0       -3.218351   -5.599319    2.062938
     48          1           0       -4.243541   -6.709458    1.125643
     49          1           0       -2.632384   -6.303313    0.537490
     50          1           0       -5.903048   -4.396463   -0.737587
     51          1           0       -5.980313   -5.692464    0.453703
     52          1           0       -5.947530   -3.999899    0.996556
     53          1           0       -1.442667   -4.513584    0.689861
     54          1           0       -0.112589   -2.550308    0.160156
     55          1           0        3.392199    1.803693   -0.857954
     56          1           0        5.804901    1.803434   -0.539867
 ---------------------------------------------------------------------

 SCF Done:  E(RB3LYP) =  -1246.24280480     A.U. after   17 cycles

 Excitation energies and oscillator strengths:

 Excited State   1:      Triplet-A      2.2680 eV  546.67 nm  f=0.0000  <S**2>=2.000
     104 ->110         0.18519
     106 ->112         0.13055
     107 ->109        -0.12237
     107 ->110         0.62827
 This state for optimization and/or second-order correction.
 Total Energy, E(TD-HF/TD-DFT) =  -1246.15945723
 Copying the excited state density for this state as the 1-particle RhoCI density.

 Excited State   2:      Triplet-A      2.8344 eV  437.42 nm  f=0.0000  <S**2>=2.000
     107 ->108         0.52831
     107 ->109         0.42158

 Excited State   3:      Triplet-A      2.8842 eV  429.88 nm  f=0.0000  <S**2>=2.000
     105 ->108         0.12376
     106 ->109        -0.10139
     106 ->110         0.54689
     107 ->112         0.29095
     107 ->114        -0.12688

 Excited State   4:      Singlet-A      2.9719 eV  417.18 nm  f=0.0007  <S**2>=0.000
     107 ->108         0.59461
     107 ->109         0.35462

 Excited State   5:      Singlet-A      3.1981 eV  387.68 nm  f=0.0016  <S**2>=0.000
     107 ->108        -0.36675
     107 ->109         0.58850
     107 ->110         0.10187

 Excited State   6:      Singlet-A      3.4186 eV  362.68 nm  f=0.0055  <S**2>=0.000
     106 ->108         0.67794
     106 ->109         0.18150

 The electronic state is 1-A.
 Alpha  occ. eigenvalues --  -14.36988 -14.36421 -14.34038 -10.24310 -10.24057
 Alpha  occ. eigenvalues --  -10.23441 -10.23366 -10.23207 -10.22947 -10.22923
 Alpha  occ. eigenvalues --  -10.22578 -10.22495 -10.22476 -10.21945 -10.21729
 Alpha  occ. eigenvalues --  -10.21545 -10.21500 -10.21489 -10.21024 -10.20793
 Alpha  occ. eigenvalues --  -10.19953 -10.19885 -10.19722 -10.19291 -10.19256
 Alpha  occ. eigenvalues --  -10.19197 -10.19156 -10.19046 -10.18918 -10.18848
 Alpha  occ. eigenvalues --  -10.18673  -0.96044  -0.95488  -0.91021  -0.88259
 Alpha  occ. eigenvalues --   -0.86025  -0.85616  -0.82502  -0.80078  -0.78145
 Alpha  occ. eigenvalues --   -0.77653  -0.75811  -0.75303  -0.74685  -0.73578
 Alpha  occ. eigenvalues --   -0.73190  -0.72635  -0.70698  -0.67298  -0.66019
 Alpha  occ. eigenvalues --   -0.65583  -0.62909  -0.61160  -0.61073  -0.59464
 Alpha  occ. eigenvalues --   -0.58190  -0.56508  -0.54820  -0.53754  -0.53179
 Alpha  occ. eigenvalues --   -0.51225  -0.50728  -0.49974  -0.49299  -0.48955
 Alpha  occ. eigenvalues --   -0.47828  -0.47550  -0.47089  -0.46309  -0.45579
 Alpha  occ. eigenvalues --   -0.45185  -0.44714  -0.43891  -0.43393  -0.42896
 Alpha  occ. eigenvalues --   -0.42388  -0.42033  -0.41834  -0.41267  -0.41088
 Alpha  occ. eigenvalues --   -0.40940  -0.40585  -0.39221  -0.38908  -0.38751
 Alpha  occ. eigenvalues --   -0.38592  -0.38211  -0.37882  -0.37617  -0.37381
 Alpha  occ. eigenvalues --   -0.35973  -0.35661  -0.34644  -0.34255  -0.33759
 Alpha  occ. eigenvalues --   -0.33296  -0.31337  -0.31266  -0.28022  -0.27063
 Alpha  occ. eigenvalues --   -0.26962  -0.25863  -0.25325  -0.24488  -0.24036
 Alpha  occ. eigenvalues --   -0.19719  -0.18743
 Alpha virt. eigenvalues --   -0.05719  -0.05014  -0.04864  -0.01370  -0.01205
 Alpha virt. eigenvalues --   -0.00780  -0.00587  -0.00380   0.00265   0.01085
 Alpha virt. eigenvalues --    0.01343   0.01520   0.01815   0.01966   0.02364

 Mulliken charges:
               1
     1  C   -0.301726
     2  N   -0.093838
     3  C   -0.308266
     4  C   -0.069772
     5  C    0.230021
     6  C   -0.682758
     7  C    0.128240
     8  C   -0.254291
     9  C   -0.007709
    10  C   -0.228453
    11  C    0.159823
    12  C    0.204636
    13  C    0.630387
    14  C    0.076046
    15  C   -0.078178
    16  C   -0.094692
    17  C    0.268914
    18  C   -0.300519
    19  N   -0.527743
    20  C   -0.711557
    21  C    0.070037
    22  C   -0.052656
    23  C   -0.261642
    24  C    0.114994
    25  N   -0.094184
    26  C   -0.297329
    27  C   -0.306355
    28  C   -0.162226
    29  C   -0.235703
    30  C   -0.791109
    31  C    0.593453
    32  H    0.133370
    33  H    0.149868
    34  H    0.152637
    35  H    0.133584
    36  H    0.152105
    37  H    0.149523
    38  H    0.109289
    39  H    0.129681
    40  H    0.138656
    41  H    0.127852
    42  H    0.135323
    43  H    0.145979
    44  H    0.152074
    45  H    0.120719
    46  H    0.108347
    47  H    0.151199
    48  H    0.131739
    49  H    0.147864
    50  H    0.147419
    51  H    0.132143
    52  H    0.151315
    53  H    0.107036
    54  H    0.131190
    55  H    0.135107
    56  H    0.110135
 Sum of Mulliken charges =  -0.00000

 Dipole moment (field-independent basis, Debye):
    X=              2.3451    Y=             -3.0723    Z=             -3.0422  Tot=              4.9187
 Quadrupole moment (field-independent basis, Debye-Ang):
   XX=           -123.6337   YY=           -156.8717   ZZ=           -204.6122
   XY=              9.8527   XZ=             16.7500   YZ=            -29.8519

 Normal termination of Gaussian 16 at Thu Aug  7 00:00:35 2025.
