 Gaussian 16, Revision C.02,
 Gaussian 16:  ES64L-G16RevC.02  7-Dec-2021

 ----------------------------------------------------------
 # td=(50-50,nstates=3) b3lyp/6-31+g(d,p) geom=connectivity
 ----------------------------------------------------------

 -------------------
 Title Card Required
 -------------------
 Symbolic Z-matrix:
 Charge =  0 Multiplicity = 1

                         Standard orientation:
 ---------------------------------------------------------------------
 Center     Atomic      Atomic             Coordinates (Angstroms)
 Number     Number       Type             X           Y           Z
 ---------------------------------------------------------------------
      1          6           0        0.655166   -2.509787   -0.186358
      2          6           0        0.647800   -1.459356    0.924129
      3          6           0        1.244272   -2.018318    2.231158
      4          8           0       -0.737943   -1.106284    1.194296
      5          6           0       -0.844145    0.273917    1.501919
      6          6           0       -2.148136    0.918904    1.000307
      7          8           0       -2.465713    1.981406    1.521265
      8          6           0       -2.965340    0.331626   -0.073026
      9          6           0       -4.061462    0.982909   -0.615634
     10          6           0       -4.708331    0.245652   -1.635778
     11          6           0       -4.102652   -0.969972   -1.861703
     12         16           0       -2.742233   -1.230428   -0.835361
     13          6           0        0.408716    0.872737    0.868151
     14          6           0        0.634237    2.273765    0.778720
     15          7           0        0.813213    3.423155    0.716240
     16          6           0        1.261843   -0.115074    0.508526
     17          6           0        2.549322    0.046109   -0.194619
     18          6           0        3.689647   -0.707244    0.143967
     19          6           0        4.892665   -0.529236   -0.539242
     20          6           0        4.980861    0.395017   -1.583268
     21          6           0        3.854957    1.142310   -1.937644
     22          6           0        2.653102    0.970977   -1.252132
     23          1           0        1.675752   -2.844004   -0.391739
     24          1           0        0.061675   -3.374713    0.124304
     25          1           0        0.228885   -2.106738   -1.107824
     26          1           0        2.258615   -2.399541    2.090764
     27          1           0        1.267113   -1.254269    3.013817
     28          1           0        0.615772   -2.846230    2.572557
     29          1           0       -0.840466    0.445046    2.589468
     30          1           0       -4.361696    1.964634   -0.269854
     31          1           0       -5.579915    0.592508   -2.178364
     32          1           0       -4.392115   -1.730636   -2.575480
     33          1           0        3.651290   -1.417718    0.960875
     34          1           0        5.762654   -1.112162   -0.251596
     35          1           0        5.917415    0.530266   -2.115937
     36          1           0        3.908819    1.859999   -2.750673
     37          1           0        1.783562    1.547717   -1.547556
 ---------------------------------------------------------------------

 SCF Done:  E(RB3LYP) =  -1298.34264383     A.U. after   17 cycles

 Excitation energies and oscillator strengths:

 Excited State   1:      Triplet-A      2.7206 eV  455.72 nm  f=0.0000  <S**2>=2.000
      79 -> 83         0.11179
      80 -> 82        -0.15754
      80 -> 83        -0.24682
      81 -> 82         0.51575
      81 -> 83        -0.28032
 This state for optimization and/or second-order correction.
 Total Energy, E(TD-HF/TD-DFT) =  -1298.24266229
 Copying the excited state density for this state as the 1-particle RhoCI density.

 Excited State   2:      Triplet-A      2.7520 eV  450.53 nm  f=0.0000  <S**2>=2.000
      80 -> 82         0.52820
      80 -> 83         0.29430
      81 -> 83        -0.28997

 Excited State   3:      Triplet-A      3.1832 eV  389.49 nm  f=0.0000  <S**2>=2.000
      76 -> 82         0.17514
      78 -> 82        -0.15049
      79 -> 82         0.42759
      79 -> 83         0.17609
      81 -> 82         0.26325
      81 -> 83         0.31702

 Excited State   4:      Singlet-A      3.5347 eV  350.76 nm  f=0.0214  <S**2>=0.000
      76 -> 82         0.11403
      78 -> 82        -0.12048
      79 -> 82         0.33698
      79 -> 83         0.16151
      81 -> 82         0.51982
      81 -> 83         0.19787

 Excited State   5:      Singlet-A      4.1391 eV  299.54 nm  f=0.1868  <S**2>=0.000
      78 -> 82         0.16200
      79 -> 82        -0.31548
      79 -> 83        -0.16911
      80 -> 82        -0.26258
      81 -> 82         0.44633
      81 -> 83        -0.20295

 Excited State   6:      Singlet-A      4.2111 eV  294.42 nm  f=0.0256  <S**2>=0.000
      79 -> 82        -0.34049
      80 -> 82         0.48521
      80 -> 83        -0.12294
      81 -> 82         0.12246
      81 -> 83         0.30749

 The electronic state is 1-A.
 Alpha  occ. eigenvalues --  -88.93323 -19.18504 -19.15506 -14.34728 -10.29755
 Alpha  occ. eigenvalues --  -10.28289 -10.27673 -10.25053 -10.24572 -10.23955
 Alpha  occ. eigenvalues --  -10.23888 -10.23676 -10.23190 -10.21845 -10.21614
 Alpha  occ. eigenvalues --  -10.21558 -10.21545 -10.21502 -10.21401 -10.21313
 Alpha  occ. eigenvalues --  -10.20260 -10.19807  -7.99117  -5.95535  -5.95152
 Alpha  occ. eigenvalues --   -5.94869  -1.07793  -1.05315  -0.91455  -0.89868
 Alpha  occ. eigenvalues --   -0.88617  -0.84446  -0.82334  -0.77191  -0.76927
 Alpha  occ. eigenvalues --   -0.76092  -0.75437  -0.71970  -0.71436  -0.67047
 Alpha  occ. eigenvalues --   -0.63511  -0.62758  -0.62430  -0.58570  -0.57959
 Alpha  occ. eigenvalues --   -0.55790  -0.54020  -0.51724  -0.51538  -0.50820
 Alpha  occ. eigenvalues --   -0.48320  -0.47613  -0.46651  -0.46592  -0.44756
 Alpha  occ. eigenvalues --   -0.44274  -0.44117  -0.43586  -0.41814  -0.41394
 Alpha  occ. eigenvalues --   -0.41097  -0.40947  -0.39849  -0.39420  -0.39181
 Alpha  occ. eigenvalues --   -0.38455  -0.38102  -0.37467  -0.37022  -0.36968
 Alpha  occ. eigenvalues --   -0.36672  -0.35747  -0.35446  -0.33174  -0.30744
 Alpha  occ. eigenvalues --   -0.29062  -0.27520  -0.27150  -0.27091  -0.25717
 Alpha  occ. eigenvalues --   -0.25032
 Alpha virt. eigenvalues --   -0.08648  -0.07238  -0.03290  -0.01584  -0.01147
 Alpha virt. eigenvalues --   -0.00393  -0.00216   0.00607   0.01013   0.01530
 Alpha virt. eigenvalues --    0.01767   0.02073   0.02750   0.03122   0.03311

 Mulliken charges:
               1
     1  C   -0.418720
     2  C   -0.266707
     3  C   -0.396488
     4  O   -0.222728
     5  C    0.754086
     6  C   -0.067456
     7  O   -0.378883
     8  C   -0.075588
     9  C    0.120943
    10  C   -0.225478
    11  C   -0.086328
    12  S   -0.002463
    13  C    0.398283
    14  C   -0.370560
    15  N   -0.517619
    16  C    0.259131
    17  C    0.562704
    18  C   -0.147159
    19  C   -0.178229
    20  C   -0.230905
    21  C   -0.092332
    22  C   -0.650423
    23  H    0.159155
    24  H    0.160717
    25  H    0.166972
    26  H    0.138546
    27  H    0.158761
    28  H    0.168063
    29  H    0.169244
    30  H    0.165848
    31  H    0.141759
    32  H    0.162121
    33  H    0.107693
    34  H    0.130658
    35  H    0.131685
    36  H    0.135065
    37  H    0.136634
 Sum of Mulliken charges =  -0.00000

 Dipole moment (field-independent basis, Debye):
    X=              1.6529    Y=             -5.9253    Z=             -2.5481  Tot=              6.6583
 Quadrupole moment (field-independent basis, Debye-Ang):
   XX=           -117.3601   YY=           -151.7066   ZZ=           -131.0248
   XY=             -2.4992   XZ=              7.5571   YZ=             -8.7806

 Normal termination of Gaussian 16 at Thu Aug  7 12:35:16 2025.
