 Gaussian 16, Revision C.02,
 Gaussian 16:  ES64L-G16RevC.02  7-Dec-2021

 ----------------------------------------------------------
 # td=(50-50,nstates=3) b3lyp/6-31+g(d,p) geom=connectivity
 ----------------------------------------------------------

 -------------------
 Title Card Required
 -------------------
 Symbolic Z-matrix:
 Charge =  0 Multiplicity = 1

                         Standard orientation:
 ---------------------------------------------------------------------
 Center     Atomic      Atomic             Coordinates (Angstroms)
 Number     Number       Type             X           Y           Z
 ---------------------------------------------------------------------
      1          6           0       -4.877938   -0.903624   -1.510590
      2          6           0       -3.747955   -1.526015   -1.100706
      3          6           0       -3.114808   -2.491111   -1.958261
      4          7           0       -2.626624   -3.259287   -2.681510
      5          6           0       -3.160066   -1.212888    0.185213
      6          6           0       -2.150105   -1.513494    1.041223
      7          6           0       -0.971919   -2.408062    1.262842
      8          6           0       -0.917145   -3.629520    0.332563
      9          6           0        0.373654   -1.630237    1.303322
     10          6           0        0.757994   -0.857495    0.000298
     11          6           0        0.054405    0.432907   -0.118762
     12          6           0       -0.491732    1.520317   -0.200303
     13         14           0       -1.256841    3.200551   -0.296300
     14          6           0       -0.146482    4.288895   -1.369975
     15          6           0       -2.972602    3.044344   -1.071954
     16          6           0       -1.382512    3.896738    1.453553
     17          6           0        2.215735   -0.651313   -0.058949
     18          6           0        3.424796   -0.499842   -0.098330
     19         14           0        5.251218   -0.240405   -0.171418
     20          6           0        5.634787    1.492770    0.474563
     21          6           0        6.087004   -1.546633    0.908763
     22          6           0        5.810788   -0.415573   -1.967282
     23          6           0       -2.738064   -0.458820    1.921795
     24          8           0       -2.589932    0.064130    2.979185
     25          8           0       -3.781922   -0.188037    0.963255
     26          1           0       -5.356143   -0.169026   -0.873812
     27          1           0       -5.319116   -1.126907   -2.475030
     28          1           0       -1.094892   -2.789615    2.287717
     29          1           0       -0.104730   -4.292085    0.647026
     30          1           0       -1.849705   -4.200092    0.373728
     31          1           0       -0.743289   -3.360401   -0.711632
     32          1           0        0.372009   -0.919232    2.134734
     33          1           0        1.163595   -2.360916    1.504489
     34          1           0        0.482264   -1.478619   -0.864997
     35          1           0       -0.559032    5.301616   -1.451570
     36          1           0        0.859533    4.367143   -0.943898
     37          1           0       -0.050719    3.880353   -2.381844
     38          1           0       -3.453960    4.026766   -1.146553
     39          1           0       -3.614235    2.396263   -0.465745
     40          1           0       -2.913666    2.620675   -2.080725
     41          1           0       -0.392222    3.985633    1.913303
     42          1           0       -1.840491    4.893061    1.442437
     43          1           0       -1.991888    3.250114    2.093831
     44          1           0        6.713342    1.688583    0.446531
     45          1           0        5.136593    2.257952   -0.130475
     46          1           0        5.296484    1.612186    1.509524
     47          1           0        7.176635   -1.424888    0.892471
     48          1           0        5.856064   -2.557969    0.556632
     49          1           0        5.755261   -1.469882    1.949973
     50          1           0        5.314611    0.321004   -2.608457
     51          1           0        6.893387   -0.264063   -2.053567
     52          1           0        5.577210   -1.411503   -2.359108
 ---------------------------------------------------------------------

 SCF Done:  E(RB3LYP) =  -1562.54683661     A.U. after   17 cycles

 Excitation energies and oscillator strengths:

 Excited State   1:      Triplet-A      1.8730 eV  661.96 nm  f=0.0000  <S**2>=2.000
      89 ->100         0.13359
      95 ->100        -0.19239
      97 ->100        -0.27773
      99 ->100         0.60140
      99 <-100         0.11059
 This state for optimization and/or second-order correction.
 Total Energy, E(TD-HF/TD-DFT) =  -1562.47800613
 Copying the excited state density for this state as the 1-particle RhoCI density.

 Excited State   2:      Singlet-A      3.2468 eV  381.87 nm  f=0.0955  <S**2>=0.000
      89 ->100        -0.10573
      99 ->100         0.68526

 Excited State   3:      Triplet-A      3.3788 eV  366.95 nm  f=0.0000  <S**2>=2.000
      89 ->100         0.32102
      95 ->100        -0.18857
      97 ->100        -0.19382
      98 ->100         0.48390
      99 ->100        -0.23353
      99 ->101        -0.11810

 Excited State   4:      Triplet-A      3.4036 eV  364.28 nm  f=0.0000  <S**2>=2.000
      96 ->100         0.17362
      97 ->100         0.48596
      98 ->100         0.39485
      99 ->100         0.24562

 Excited State   5:      Singlet-A      3.4103 eV  363.56 nm  f=0.0024  <S**2>=0.000
      96 ->100         0.15813
      97 ->100         0.21878
      98 ->100         0.64631

 Excited State   6:      Singlet-A      3.5495 eV  349.31 nm  f=0.0481  <S**2>=0.000
      89 ->100         0.10141
      96 ->100         0.11590
      97 ->100         0.63797
      98 ->100        -0.22843

 The electronic state is 1-A.
 Alpha  occ. eigenvalues --  -66.13851 -66.13730 -19.20984 -19.19270 -14.37211
 Alpha  occ. eigenvalues --  -10.35164 -10.30844 -10.28535 -10.26417 -10.25676
 Alpha  occ. eigenvalues --  -10.25370 -10.24052 -10.23480 -10.21638 -10.19879
 Alpha  occ. eigenvalues --  -10.19873 -10.19796 -10.17132 -10.17084 -10.16846
 Alpha  occ. eigenvalues --  -10.16756 -10.16735 -10.16683 -10.16637 -10.16359
 Alpha  occ. eigenvalues --   -5.28134  -5.28002  -3.64126  -3.64002  -3.63967
 Alpha  occ. eigenvalues --   -3.63964  -3.63836  -3.63827  -1.13466  -1.07496
 Alpha  occ. eigenvalues --   -0.94050  -0.86717  -0.85986  -0.82415  -0.77641
 Alpha  occ. eigenvalues --   -0.74364  -0.72722  -0.71348  -0.71155  -0.70571
 Alpha  occ. eigenvalues --   -0.68242  -0.68177  -0.68118  -0.67912  -0.67763
 Alpha  occ. eigenvalues --   -0.66083  -0.62501  -0.54982  -0.54482  -0.53671
 Alpha  occ. eigenvalues --   -0.52016  -0.51264  -0.50305  -0.49991  -0.49065
 Alpha  occ. eigenvalues --   -0.48619  -0.46933  -0.44556  -0.43929  -0.43374
 Alpha  occ. eigenvalues --   -0.42394  -0.42238  -0.42204  -0.41983  -0.41114
 Alpha  occ. eigenvalues --   -0.41038  -0.40980  -0.40779  -0.40761  -0.39577
 Alpha  occ. eigenvalues --   -0.39515  -0.39468  -0.39282  -0.39248  -0.38441
 Alpha  occ. eigenvalues --   -0.38292  -0.37921  -0.37853  -0.37367  -0.36575
 Alpha  occ. eigenvalues --   -0.35679  -0.35453  -0.35203  -0.32018  -0.31575
 Alpha  occ. eigenvalues --   -0.31492  -0.31340  -0.31223  -0.31113  -0.28388
 Alpha  occ. eigenvalues --   -0.27437  -0.26539  -0.26238  -0.25398
 Alpha virt. eigenvalues --   -0.11613  -0.04502  -0.01714  -0.01309  -0.00771
 Alpha virt. eigenvalues --   -0.00580  -0.00203   0.00112   0.00729   0.01017
 Alpha virt. eigenvalues --    0.01470   0.01858   0.02252   0.02434   0.02752

 Mulliken charges:
               1
     1  C   -0.123028
     2  C    1.555317
     3  C   -0.846196
     4  N   -0.423930
     5  C   -0.190844
     6  C    0.114638
     7  C   -0.093810
     8  C   -0.525674
     9  C   -0.607870
    10  C    0.003752
    11  C    0.108814
    12  C   -1.002836
    13  Si   1.338255
    14  C   -0.669984
    15  C   -0.719162
    16  C   -0.669391
    17  C    0.227627
    18  C   -0.787526
    19  Si   1.248132
    20  C   -0.697524
    21  C   -0.690311
    22  C   -0.687190
    23  C    0.320243
    24  O   -0.353682
    25  O   -0.320686
    26  H    0.188247
    27  H    0.176288
    28  H    0.158184
    29  H    0.151242
    30  H    0.158700
    31  H    0.168400
    32  H    0.178862
    33  H    0.159258
    34  H    0.187587
    35  H    0.160379
    36  H    0.166834
    37  H    0.164898
    38  H    0.161697
    39  H    0.175439
    40  H    0.159467
    41  H    0.164948
    42  H    0.159222
    43  H    0.179327
    44  H    0.160533
    45  H    0.166464
    46  H    0.165793
    47  H    0.160653
    48  H    0.164100
    49  H    0.164479
    50  H    0.166691
    51  H    0.160168
    52  H    0.165005
 Sum of Mulliken charges =  -0.00000

 Dipole moment (field-independent basis, Debye):
    X=             -0.4404    Y=             -0.1899    Z=             -0.5000  Tot=              0.6928
 Quadrupole moment (field-independent basis, Debye-Ang):
   XX=           -149.2412   YY=           -166.6835   ZZ=           -180.1376
   XY=             -0.9026   XZ=              9.2134   YZ=            -12.5431

 Normal termination of Gaussian 16 at Wed Aug  6 23:56:36 2025.
