 Gaussian 16, Revision C.02,
 Gaussian 16:  ES64L-G16RevC.02  7-Dec-2021

 ----------------------------------------------------------
 # td=(50-50,nstates=3) b3lyp/6-31+g(d,p) geom=connectivity
 ----------------------------------------------------------

 -------------------
 Title Card Required
 -------------------
 Symbolic Z-matrix:
 Charge =  0 Multiplicity = 1

                         Standard orientation:
 ---------------------------------------------------------------------
 Center     Atomic      Atomic             Coordinates (Angstroms)
 Number     Number       Type             X           Y           Z
 ---------------------------------------------------------------------
      1          6           0        0.241454   -2.193539   -1.990081
      2          6           0        0.865671   -1.413480   -0.868627
      3          6           0        1.175278   -1.953010    0.326502
      4          6           0        1.847158   -1.177976    1.373446
      5          8           0        1.921112   -1.714049    2.637415
      6          6           0        2.397983    0.020696    1.108062
      7          6           0        2.415730    0.571461   -0.310988
      8          6           0        2.468493    2.113211   -0.294318
      9          6           0        3.691694    0.054465   -1.025859
     10          6           0        1.171875    0.061929   -1.124909
     11          6           0       -0.102600    0.905338   -0.939983
     12          8           0       -0.604221    1.521631   -1.853669
     13          6           0       -0.770016    0.955100    0.476485
     14          6           0       -1.099748    2.337753    0.853935
     15          7           0       -1.343899    3.420153    1.195835
     16          6           0       -1.997256    0.063865    0.564819
     17          7           0       -2.363425   -0.415754    1.764325
     18         16           0       -2.954736   -0.388620   -0.749765
     19          8           0       -4.045799   -1.285746   -0.130828
     20          1           0       -0.033998   -3.203373   -1.674825
     21          1           0       -0.656909   -1.696900   -2.374532
     22          1           0        0.941207   -2.274432   -2.832521
     23          1           0        0.948292   -3.000109    0.523756
     24          1           0        1.413203   -2.534441    2.682180
     25          1           0        2.929103    0.560906    1.886787
     26          1           0        1.637690    2.561760    0.259379
     27          1           0        3.393377    2.447318    0.187451
     28          1           0        2.454404    2.518984   -1.311293
     29          1           0        3.772158    0.477462   -2.034830
     30          1           0        4.581309    0.350626   -0.460998
     31          1           0        3.691671   -1.036758   -1.104330
     32          1           0        1.399294    0.191896   -2.188485
     33          1           0       -0.037007    0.583665    1.204591
     34          1           0       -3.237032   -0.944693    1.772828
     35          1           0       -1.972742   -0.064350    2.625721
 ---------------------------------------------------------------------

 SCF Done:  E(RB3LYP) =  -1238.33723870     A.U. after   19 cycles

 Excitation energies and oscillator strengths:

 Excited State   1:      Triplet-A      1.8910 eV  655.66 nm  f=0.0000  <S**2>=2.000
      73 -> 76        -0.22325
      74 -> 75        -0.39589
      74 -> 76         0.54644
      74 <- 76         0.12654
 This state for optimization and/or second-order correction.
 Total Energy, E(TD-HF/TD-DFT) =  -1238.26774635
 Copying the excited state density for this state as the 1-particle RhoCI density.

 Excited State   2:      Triplet-A      2.2805 eV  543.68 nm  f=0.0000  <S**2>=2.000
      73 -> 75         0.49015
      73 -> 76         0.11067
      73 -> 77        -0.31717
      74 -> 75         0.26570
      74 -> 76         0.16825
      74 -> 77        -0.17079

 Excited State   3:      Singlet-A      3.0684 eV  404.06 nm  f=0.0346  <S**2>=0.000
      73 -> 75         0.13736
      74 -> 75         0.65244
      74 -> 76         0.20287

 Excited State   4:      Triplet-A      3.0693 eV  403.94 nm  f=0.0000  <S**2>=2.000
      71 -> 75         0.13966
      73 -> 75        -0.20032
      73 -> 76        -0.13084
      73 -> 77         0.13878
      74 -> 75         0.48765
      74 -> 76         0.33576
      74 -> 77         0.17985

 Excited State   5:      Singlet-A      3.3317 eV  372.14 nm  f=0.0033  <S**2>=0.000
      73 -> 75         0.67259
      74 -> 75        -0.12036
      74 -> 76        -0.11840

 Excited State   6:      Singlet-A      3.7795 eV  328.04 nm  f=0.0464  <S**2>=0.000
      73 -> 76         0.50056
      74 -> 75        -0.16421
      74 -> 76         0.45051
      74 -> 77         0.10051

 The electronic state is 1-A.
 Alpha  occ. eigenvalues --  -88.97651 -19.21146 -19.19434 -19.13568 -14.40969
 Alpha  occ. eigenvalues --  -14.36505 -10.33019 -10.30829 -10.28880 -10.27736
 Alpha  occ. eigenvalues --  -10.25823 -10.24339 -10.24250 -10.23904 -10.22701
 Alpha  occ. eigenvalues --  -10.21159 -10.20215 -10.20044 -10.19939  -8.02648
 Alpha  occ. eigenvalues --   -5.99145  -5.98670  -5.98501  -1.09549  -1.08719
 Alpha  occ. eigenvalues --   -1.02086  -0.97186  -0.93161  -0.89242  -0.84215
 Alpha  occ. eigenvalues --   -0.82421  -0.79176  -0.75449  -0.73591  -0.71706
 Alpha  occ. eigenvalues --   -0.71004  -0.64114  -0.63153  -0.60735  -0.60106
 Alpha  occ. eigenvalues --   -0.59291  -0.55791  -0.54895  -0.53663  -0.52577
 Alpha  occ. eigenvalues --   -0.50769  -0.48686  -0.47721  -0.46379  -0.45273
 Alpha  occ. eigenvalues --   -0.44568  -0.44464  -0.43962  -0.42807  -0.42440
 Alpha  occ. eigenvalues --   -0.42093  -0.41741  -0.41217  -0.40175  -0.40024
 Alpha  occ. eigenvalues --   -0.38625  -0.38476  -0.38041  -0.37231  -0.36411
 Alpha  occ. eigenvalues --   -0.35927  -0.35372  -0.34944  -0.34340  -0.31575
 Alpha  occ. eigenvalues --   -0.29498  -0.27643  -0.23602  -0.22398
 Alpha virt. eigenvalues --   -0.08648  -0.06936  -0.05148  -0.02929  -0.01332
 Alpha virt. eigenvalues --   -0.00640  -0.00180   0.00280   0.01083   0.01491
 Alpha virt. eigenvalues --    0.01845   0.02279   0.02721   0.03632   0.03844

 Mulliken charges:
               1
     1  C   -0.231569
     2  C    0.258666
     3  C   -0.551042
     4  C   -0.281417
     5  O   -0.438389
     6  C    0.238934
     7  C   -0.236669
     8  C   -0.373839
     9  C   -0.292664
    10  C    0.300044
    11  C   -0.687705
    12  O   -0.230979
    13  C    0.259428
    14  C   -0.122601
    15  N   -0.395834
    16  C   -0.083795
    17  N   -0.438064
    18  S    0.884778
    19  O   -0.660803
    20  H    0.151574
    21  H    0.177270
    22  H    0.167409
    23  H    0.116144
    24  H    0.345034
    25  H    0.135874
    26  H    0.157399
    27  H    0.155771
    28  H    0.164096
    29  H    0.150706
    30  H    0.159026
    31  H    0.160819
    32  H    0.151772
    33  H    0.210064
    34  H    0.363702
    35  H    0.316862
 Sum of Mulliken charges =  -0.00000

 Dipole moment (field-independent basis, Debye):
    X=              5.2444    Y=             -3.9854    Z=              1.3762  Tot=              6.7291
 Quadrupole moment (field-independent basis, Debye-Ang):
   XX=           -140.2260   YY=           -131.9808   ZZ=           -117.1056
   XY=              1.5775   XZ=            -10.2825   YZ=             -3.2997

 Normal termination of Gaussian 16 at Wed Aug  6 09:30:48 2025.
