 Gaussian 16, Revision C.02,
 Gaussian 16:  ES64L-G16RevC.02  7-Dec-2021

 ----------------------------------------------------------
 # td=(50-50,nstates=3) b3lyp/6-31+g(d,p) geom=connectivity
 ----------------------------------------------------------

 -------------------
 Title Card Required
 -------------------
 Symbolic Z-matrix:
 Charge =  0 Multiplicity = 1

                         Standard orientation:
 ---------------------------------------------------------------------
 Center     Atomic      Atomic             Coordinates (Angstroms)
 Number     Number       Type             X           Y           Z
 ---------------------------------------------------------------------
      1          6           0        3.056296    1.888991    2.422017
      2          7           0        2.681200    0.978072    1.358783
      3          6           0        2.109456    1.560894    0.134074
      4          6           0        2.076023    0.385063   -0.886390
      5          6           0        2.278843    0.873240   -2.329238
      6          6           0        0.786885   -0.484256   -0.738647
      7          6           0       -0.501768   -0.058736   -1.483476
      8          7           0       -1.550064   -1.082726   -1.315274
      9          6           0       -2.619066   -0.566437   -0.613427
     10          6           0       -3.750323   -1.244073   -0.133384
     11          6           0       -4.723010   -0.476759    0.500894
     12         17           0       -6.154450   -1.287579    1.115720
     13          6           0       -4.621051    0.917954    0.671469
     14          6           0       -3.488984    1.570718    0.196229
     15          6           0       -2.487731    0.826429   -0.435272
     16          6           0       -1.197192    1.234438   -0.991435
     17          8           0       -0.734579    2.363226   -1.096238
     18          6           0        3.245762   -0.448986   -0.358022
     19          6           0        3.951253   -1.487428   -0.949453
     20          6           0        4.973346   -2.128443   -0.228532
     21          6           0        5.266295   -1.717997    1.074673
     22          6           0        4.560365   -0.672406    1.685864
     23          6           0        3.540233   -0.047910    0.959896
     24          1           0        2.214833    2.552777    2.639261
     25          1           0        3.285492    1.331703    3.334651
     26          1           0        3.932166    2.509349    2.161075
     27          1           0        1.132037    2.002744    0.326613
     28          1           0        2.771171    2.356568   -0.253098
     29          1           0        2.227304    0.042769   -3.043439
     30          1           0        1.519132    1.611419   -2.604507
     31          1           0        3.261936    1.341188   -2.436277
     32          1           0        1.030408   -1.484925   -1.119799
     33          1           0        0.561013   -0.604035    0.327888
     34          1           0       -0.285433    0.070277   -2.550153
     35          1           0       -1.275215   -2.044695   -1.169394
     36          1           0       -3.875753   -2.314216   -0.254318
     37          1           0       -5.417253    1.458587    1.169036
     38          1           0       -3.370714    2.643360    0.316163
     39          1           0        3.729037   -1.798457   -1.967736
     40          1           0        5.539145   -2.933877   -0.686454
     41          1           0        6.062944   -2.209826    1.626161
     42          1           0        4.808283   -0.360883    2.695395
 ---------------------------------------------------------------------

 SCF Done:  E(RB3LYP) =  -1380.45375001     A.U. after   17 cycles

 Excitation energies and oscillator strengths:

 Excited State   1:      Triplet-A      2.6959 eV  459.89 nm  f=0.0000  <S**2>=2.000
      85 -> 87        -0.45691
      86 -> 87         0.52770
 This state for optimization and/or second-order correction.
 Total Energy, E(TD-HF/TD-DFT) =  -1380.35467662
 Copying the excited state density for this state as the 1-particle RhoCI density.

 Excited State   2:      Singlet-A      2.7685 eV  447.83 nm  f=0.0005  <S**2>=0.000
      86 -> 87         0.70619

 Excited State   3:      Triplet-A      2.8348 eV  437.37 nm  f=0.0000  <S**2>=2.000
      85 -> 87         0.51439
      86 -> 87         0.46692

 Excited State   4:      Triplet-A      3.2803 eV  377.96 nm  f=0.0000  <S**2>=2.000
      83 -> 87         0.65379
      83 -> 96        -0.11882
      84 -> 87         0.14813

 Excited State   5:      Singlet-A      3.5056 eV  353.68 nm  f=0.0431  <S**2>=0.000
      83 -> 87         0.31406
      84 -> 87         0.10295
      85 -> 87         0.61450

 Excited State   6:      Singlet-A      3.7532 eV  330.34 nm  f=0.0236  <S**2>=0.000
      82 -> 87         0.10980
      83 -> 87         0.57403
      84 -> 87         0.18899
      85 -> 87        -0.32251

 The electronic state is 1-A.
 Alpha  occ. eigenvalues -- -101.56647 -19.15185 -14.37971 -14.35269 -10.28793
 Alpha  occ. eigenvalues --  -10.27970 -10.26354 -10.24917 -10.22470 -10.22354
 Alpha  occ. eigenvalues --  -10.22078 -10.21908 -10.21880 -10.21516 -10.21510
 Alpha  occ. eigenvalues --  -10.21017 -10.20866 -10.19428 -10.19316 -10.19003
 Alpha  occ. eigenvalues --  -10.18944 -10.18559 -10.18437  -9.48160  -7.24564
 Alpha  occ. eigenvalues --   -7.23604  -7.23555  -1.04918  -0.98128  -0.96146
 Alpha  occ. eigenvalues --   -0.90454  -0.85053  -0.84669  -0.82562  -0.78790
 Alpha  occ. eigenvalues --   -0.76540  -0.75304  -0.74549  -0.73107  -0.71242
 Alpha  occ. eigenvalues --   -0.68904  -0.65815  -0.64176  -0.61946  -0.60936
 Alpha  occ. eigenvalues --   -0.58077  -0.57975  -0.56029  -0.54203  -0.51404
 Alpha  occ. eigenvalues --   -0.50632  -0.50009  -0.48823  -0.48057  -0.47137
 Alpha  occ. eigenvalues --   -0.46875  -0.46564  -0.46249  -0.44661  -0.43958
 Alpha  occ. eigenvalues --   -0.43637  -0.43168  -0.42672  -0.41536  -0.40998
 Alpha  occ. eigenvalues --   -0.40621  -0.40295  -0.39309  -0.39011  -0.38418
 Alpha  occ. eigenvalues --   -0.37734  -0.37237  -0.36678  -0.36222  -0.35708
 Alpha  occ. eigenvalues --   -0.34586  -0.33636  -0.32797  -0.32600  -0.31267
 Alpha  occ. eigenvalues --   -0.28908  -0.26994  -0.26315  -0.25025  -0.23107
 Alpha  occ. eigenvalues --   -0.19700
 Alpha virt. eigenvalues --   -0.07778  -0.02341  -0.01662  -0.00865  -0.00040
 Alpha virt. eigenvalues --    0.00144   0.00490   0.00738   0.01128   0.01395
 Alpha virt. eigenvalues --    0.01846   0.02571   0.02860   0.03048   0.03500

 Mulliken charges:
               1
     1  C   -0.228520
     2  N    0.015863
     3  C   -0.492501
     4  C    0.723784
     5  C   -0.549526
     6  C   -0.385101
     7  C   -0.524850
     8  N   -0.164650
     9  C   -1.729067
    10  C   -0.161786
    11  C   -0.118950
    12  Cl   0.269324
    13  C   -0.206924
    14  C    0.149279
    15  C    1.325808
    16  C    0.582126
    17  O   -0.436491
    18  C    0.064769
    19  C   -0.031954
    20  C   -0.212083
    21  C   -0.235031
    22  C    0.074345
    23  C   -0.613287
    24  H    0.144799
    25  H    0.142004
    26  H    0.141815
    27  H    0.161043
    28  H    0.132523
    29  H    0.142924
    30  H    0.176140
    31  H    0.157280
    32  H    0.144203
    33  H    0.173197
    34  H    0.171459
    35  H    0.290371
    36  H    0.140713
    37  H    0.146178
    38  H    0.157175
    39  H    0.112484
    40  H    0.118294
    41  H    0.119513
    42  H    0.113310
 Sum of Mulliken charges =  -0.00000

 Dipole moment (field-independent basis, Debye):
    X=              0.4478    Y=             -1.4584    Z=              0.1848  Tot=              1.5367
 Quadrupole moment (field-independent basis, Debye-Ang):
   XX=           -152.9481   YY=           -143.1121   ZZ=           -140.7390
   XY=             -0.5044   XZ=              1.8859   YZ=              9.2502

 Normal termination of Gaussian 16 at Tue Oct  7 12:03:06 2025.
