 Gaussian 16, Revision C.02,
 Gaussian 16:  ES64L-G16RevC.02  7-Dec-2021

 ----------------------------------------------------------
 # td=(50-50,nstates=3) b3lyp/6-31+g(d,p) geom=connectivity
 ----------------------------------------------------------

 -------------------
 Title Card Required
 -------------------
 Symbolic Z-matrix:
 Charge =  0 Multiplicity = 1

                         Standard orientation:
 ---------------------------------------------------------------------
 Center     Atomic      Atomic             Coordinates (Angstroms)
 Number     Number       Type             X           Y           Z
 ---------------------------------------------------------------------
      1          6           0        4.510971    0.001570    0.201317
      2          6           0        3.349411    0.679616    0.181353
      3          6           0        3.314843    2.054219   -0.253171
      4          7           0        3.255203    3.153983   -0.627649
      5          6           0        2.048866    0.094834    0.565578
      6          6           0        1.371783   -0.974406    0.114133
      7          6           0        1.821353   -1.984644   -0.915602
      8          6           0        1.910099   -3.400952   -0.306492
      9          6           0        0.949942   -1.990163   -2.189511
     10          6           0        0.087291   -1.050735    0.939644
     11          6           0       -1.236752   -1.251870    0.277412
     12          6           0       -1.919468   -2.499608    0.210909
     13          8           0       -1.633292   -3.634291    0.541409
     14          8           0       -3.160783   -2.167637   -0.389741
     15          7           0       -3.235680   -0.832860   -0.662059
     16          7           0       -2.089705   -0.336570   -0.249627
     17          6           0       -1.923294    1.091998   -0.379816
     18          6           0       -2.896348    1.925581    0.172935
     19          6           0       -2.743074    3.305904    0.045946
     20          6           0       -1.631101    3.834572   -0.616565
     21          6           0       -0.668982    2.983896   -1.166428
     22          6           0       -0.815098    1.599651   -1.057437
     23          6           0        0.177626    0.204702    1.823696
     24          8           0       -0.600317    0.617628    2.638074
     25          8           0        1.376661    0.823982    1.559766
     26          1           0        4.547095   -1.024225    0.550719
     27          1           0        5.436566    0.463111   -0.124973
     28          1           0        2.830657   -1.687291   -1.222458
     29          1           0        2.320469   -4.098027   -1.044550
     30          1           0        2.563932   -3.417747    0.572541
     31          1           0        0.924037   -3.772326   -0.008563
     32          1           0        1.383250   -2.675380   -2.925443
     33          1           0        0.900757   -0.997589   -2.649384
     34          1           0       -0.069071   -2.330134   -1.986960
     35          1           0        0.172881   -1.909628    1.625051
     36          1           0       -3.740296    1.496093    0.699935
     37          1           0       -3.487177    3.967396    0.477762
     38          1           0       -1.510808    4.910135   -0.700027
     39          1           0        0.198014    3.392094   -1.675159
     40          1           0       -0.085595    0.929200   -1.496599
 ---------------------------------------------------------------------

 SCF Done:  E(RB3LYP) =  -1160.03251973     A.U. after   18 cycles

 Excitation energies and oscillator strengths:

 Excited State   1:      Triplet-A      1.8833 eV  658.33 nm  f=0.0000  <S**2>=2.000
      88 -> 89        -0.14093
      88 -> 90         0.68264
      88 -> 92        -0.10433
      88 -> 93         0.13352
      88 <- 90         0.16158
 This state for optimization and/or second-order correction.
 Total Energy, E(TD-HF/TD-DFT) =  -1159.96330950
 Copying the excited state density for this state as the 1-particle RhoCI density.

 Excited State   2:      Triplet-A      2.9224 eV  424.26 nm  f=0.0000  <S**2>=2.000
      82 -> 89         0.30441
      83 -> 89         0.17126
      87 -> 89         0.56405

 Excited State   3:      Triplet-A      3.4801 eV  356.27 nm  f=0.0000  <S**2>=2.000
      82 -> 89        -0.10242
      88 -> 89         0.67155
      88 -> 90         0.14123

 Excited State   4:      Singlet-A      3.5006 eV  354.18 nm  f=0.0003  <S**2>=0.000
      88 -> 89         0.69643

 Excited State   5:      Singlet-A      3.9549 eV  313.50 nm  f=0.1040  <S**2>=0.000
      87 -> 89         0.11701
      88 -> 90         0.66329
      88 -> 93        -0.11599

 Excited State   6:      Singlet-A      4.0944 eV  302.81 nm  f=0.0492  <S**2>=0.000
      87 -> 89         0.67913
      88 -> 90        -0.10660

 The electronic state is 1-A.
 Alpha  occ. eigenvalues --  -19.26334 -19.24199 -19.17990 -19.14643 -14.50159
 Alpha  occ. eigenvalues --  -14.45899 -14.37098 -10.35621 -10.32877 -10.29670
 Alpha  occ. eigenvalues --  -10.28547 -10.27983 -10.27128 -10.26636 -10.26232
 Alpha  occ. eigenvalues --  -10.25621 -10.24317 -10.23716 -10.23468 -10.23281
 Alpha  occ. eigenvalues --  -10.22921 -10.22873 -10.22819 -10.20262 -10.19734
 Alpha  occ. eigenvalues --   -1.20698  -1.15103  -1.07080  -1.06374  -1.03115
 Alpha  occ. eigenvalues --   -0.93827  -0.89761  -0.88661  -0.86804  -0.84190
 Alpha  occ. eigenvalues --   -0.80938  -0.79944  -0.78800  -0.76087  -0.71384
 Alpha  occ. eigenvalues --   -0.70826  -0.69609  -0.67157  -0.65710  -0.64382
 Alpha  occ. eigenvalues --   -0.63451  -0.61066  -0.59152  -0.57969  -0.55705
 Alpha  occ. eigenvalues --   -0.53715  -0.53230  -0.52718  -0.51180  -0.49735
 Alpha  occ. eigenvalues --   -0.48982  -0.48652  -0.47629  -0.46759  -0.46235
 Alpha  occ. eigenvalues --   -0.46065  -0.45815  -0.45070  -0.44203  -0.43513
 Alpha  occ. eigenvalues --   -0.43246  -0.42188  -0.41483  -0.40949  -0.40466
 Alpha  occ. eigenvalues --   -0.39929  -0.39705  -0.39193  -0.38906  -0.38582
 Alpha  occ. eigenvalues --   -0.38504  -0.37718  -0.37231  -0.36877  -0.36327
 Alpha  occ. eigenvalues --   -0.35378  -0.32142  -0.30978  -0.29732  -0.29016
 Alpha  occ. eigenvalues --   -0.28947  -0.27057  -0.24224
 Alpha virt. eigenvalues --   -0.09484  -0.08796  -0.05603  -0.04471  -0.04118
 Alpha virt. eigenvalues --   -0.02084  -0.00986  -0.00443   0.00288   0.00344
 Alpha virt. eigenvalues --    0.00897   0.01600   0.02214   0.02755   0.02794

 Mulliken charges:
               1
     1  C   -0.229079
     2  C    0.319756
     3  C   -0.385250
     4  N   -0.465928
     5  C    0.591126
     6  C   -0.415424
     7  C    0.239074
     8  C   -0.555422
     9  C   -0.546100
    10  C    0.722426
    11  C   -1.024077
    12  C    0.674447
    13  O   -0.488495
    14  O    0.058961
    15  N   -0.513150
    16  N    0.680212
    17  C   -1.052156
    18  C    0.555776
    19  C   -0.035190
    20  C   -0.048978
    21  C   -0.354310
    22  C    0.375161
    23  C   -0.011003
    24  O   -0.328901
    25  O   -0.113937
    26  H    0.163602
    27  H    0.171305
    28  H    0.127768
    29  H    0.150843
    30  H    0.143493
    31  H    0.200669
    32  H    0.153457
    33  H    0.137808
    34  H    0.167117
    35  H    0.219793
    36  H    0.152688
    37  H    0.141260
    38  H    0.140298
    39  H    0.150626
    40  H    0.129732
 Sum of Mulliken charges =  -0.00000

 Dipole moment (field-independent basis, Debye):
    X=              3.8400    Y=              1.1789    Z=             -2.1350  Tot=              4.5490
 Quadrupole moment (field-independent basis, Debye-Ang):
   XX=           -137.2058   YY=           -161.4079   ZZ=           -153.1503
   XY=            -29.7034   XZ=             -0.8663   YZ=              0.3955

 Normal termination of Gaussian 16 at Wed Aug  6 09:41:50 2025.
