 Gaussian 16, Revision C.02,
 Gaussian 16:  ES64L-G16RevC.02  7-Dec-2021

 ----------------------------------------------------------
 # td=(50-50,nstates=3) b3lyp/6-31+g(d,p) geom=connectivity
 ----------------------------------------------------------

 -------------------
 Title Card Required
 -------------------
 Symbolic Z-matrix:
 Charge =  0 Multiplicity = 1

                         Standard orientation:
 ---------------------------------------------------------------------
 Center     Atomic      Atomic             Coordinates (Angstroms)
 Number     Number       Type             X           Y           Z
 ---------------------------------------------------------------------
      1          6           0       -4.013699   -1.885220    1.666174
      2          6           0       -3.459945   -1.584389    0.480758
      3          6           0       -3.814917   -2.351889   -0.684395
      4          7           0       -4.060244   -2.979808   -1.633590
      5          6           0       -2.504666   -0.425308    0.292701
      6          6           0       -1.151244   -0.615584    0.233031
      7          6           0       -0.610320   -2.053592    0.372191
      8          6           0       -0.272789   -2.747502   -0.969461
      9          6           0        0.532081   -2.190748    1.398866
     10          6           0       -0.173522    0.494323    0.049709
     11          6           0        1.025874    0.329530   -0.545563
     12          6           0        2.046653    1.413535   -0.728671
     13          6           0        3.454874    1.078958   -0.247409
     14          8           0        4.224038    1.910357    0.190000
     15          8           0        3.760953   -0.224044   -0.415011
     16          6           0        5.113457   -0.660961   -0.052351
     17          6           0        5.158654   -0.981962    1.437464
     18          6           0        5.421338   -1.854826   -0.944575
     19          8           0       -0.438192    1.724613    0.620552
     20          6           0       -1.414950    2.634954    0.035516
     21          6           0       -1.062273    3.995865    0.639753
     22          6           0       -1.317934    2.672537   -1.493393
     23          6           0       -2.805602    2.197970    0.508954
     24          6           0       -3.278741    0.838716    0.032874
     25          8           0       -4.375528    0.740309   -0.506015
     26          1           0       -3.761666   -1.314269    2.554430
     27          1           0       -4.723987   -2.698734    1.769964
     28          1           0       -1.441790   -2.626173    0.787385
     29          1           0       -0.132348   -3.818766   -0.789012
     30          1           0       -1.084585   -2.637718   -1.693233
     31          1           0        0.646751   -2.375061   -1.428063
     32          1           0        0.702423   -3.253635    1.603067
     33          1           0        0.273983   -1.705133    2.346077
     34          1           0        1.473362   -1.761848    1.048486
     35          1           0        1.296084   -0.644756   -0.923505
     36          1           0        2.155489    1.641213   -1.801087
     37          1           0        1.749224    2.334909   -0.229369
     38          1           0        5.787896    0.171104   -0.272506
     39          1           0        6.165062   -1.313435    1.714696
     40          1           0        4.915770   -0.099089    2.033980
     41          1           0        4.453796   -1.783711    1.682272
     42          1           0        6.435860   -2.214515   -0.744721
     43          1           0        5.356001   -1.580990   -2.001649
     44          1           0        4.722659   -2.676327   -0.754522
     45          1           0       -1.783351    4.755414    0.322385
     46          1           0       -0.064744    4.309655    0.318667
     47          1           0       -1.069316    3.941238    1.732292
     48          1           0       -1.524531    1.698460   -1.946264
     49          1           0       -2.050081    3.383221   -1.888633
     50          1           0       -0.322718    2.996256   -1.810490
     51          1           0       -2.793764    2.177116    1.606837
     52          1           0       -3.563921    2.917884    0.188397
 ---------------------------------------------------------------------

 SCF Done:  E(RB3LYP) =  -1134.05051852     A.U. after   16 cycles

 Excitation energies and oscillator strengths:

 Excited State   1:      Triplet-A      2.5465 eV  486.89 nm  f=0.0000  <S**2>=2.000
      90 -> 94         0.12955
      93 -> 94         0.64439
      93 -> 96        -0.16029
 This state for optimization and/or second-order correction.
 Total Energy, E(TD-HF/TD-DFT) =  -1133.95693785
 Copying the excited state density for this state as the 1-particle RhoCI density.

 Excited State   2:      Triplet-A      3.1226 eV  397.06 nm  f=0.0000  <S**2>=2.000
      92 -> 94         0.65280
      92 -> 96         0.19333

 Excited State   3:      Triplet-A      3.2325 eV  383.55 nm  f=0.0000  <S**2>=2.000
      90 -> 95         0.37280
      91 -> 94        -0.12292
      91 -> 95         0.56169
      91 <- 95         0.10234

 Excited State   4:      Singlet-A      3.6173 eV  342.76 nm  f=0.0022  <S**2>=0.000
      92 -> 94         0.67630
      92 -> 96         0.14935

 Excited State   5:      Singlet-A      4.0355 eV  307.23 nm  f=0.2674  <S**2>=0.000
      93 -> 94         0.68066

 Excited State   6:      Singlet-A      4.3054 eV  287.97 nm  f=0.0102  <S**2>=0.000
      93 -> 95         0.69096

 The electronic state is 1-A.
 Alpha  occ. eigenvalues --  -19.20994 -19.18176 -19.15833 -19.15536 -14.34559
 Alpha  occ. eigenvalues --  -10.33405 -10.29592 -10.27657 -10.26827 -10.26393
 Alpha  occ. eigenvalues --  -10.25750 -10.24409 -10.23724 -10.23263 -10.22664
 Alpha  occ. eigenvalues --  -10.22012 -10.21758 -10.21380 -10.20752 -10.19781
 Alpha  occ. eigenvalues --  -10.19719 -10.19546 -10.19376 -10.19046 -10.19041
 Alpha  occ. eigenvalues --   -1.11634  -1.06837  -1.05628  -1.03083  -0.91399
 Alpha  occ. eigenvalues --   -0.86864  -0.84475  -0.82163  -0.81832  -0.79488
 Alpha  occ. eigenvalues --   -0.77703  -0.73784  -0.72866  -0.71314  -0.70990
 Alpha  occ. eigenvalues --   -0.69909  -0.66954  -0.64784  -0.64127  -0.62118
 Alpha  occ. eigenvalues --   -0.59499  -0.56881  -0.56340  -0.54349  -0.52725
 Alpha  occ. eigenvalues --   -0.51139  -0.50516  -0.49980  -0.48946  -0.48658
 Alpha  occ. eigenvalues --   -0.47786  -0.47210  -0.46530  -0.45937  -0.45701
 Alpha  occ. eigenvalues --   -0.45001  -0.44112  -0.43430  -0.42570  -0.42377
 Alpha  occ. eigenvalues --   -0.42134  -0.41273  -0.40858  -0.40785  -0.40289
 Alpha  occ. eigenvalues --   -0.40123  -0.40023  -0.39532  -0.39247  -0.38625
 Alpha  occ. eigenvalues --   -0.37781  -0.37728  -0.37047  -0.37001  -0.36702
 Alpha  occ. eigenvalues --   -0.36272  -0.35874  -0.35268  -0.34796  -0.34042
 Alpha  occ. eigenvalues --   -0.33839  -0.31697  -0.30638  -0.29488  -0.28778
 Alpha  occ. eigenvalues --   -0.28328  -0.26604  -0.24765
 Alpha virt. eigenvalues --   -0.08339  -0.06289  -0.02365  -0.01251  -0.00750
 Alpha virt. eigenvalues --   -0.00098   0.00028   0.01092   0.01353   0.01770
 Alpha virt. eigenvalues --    0.02184   0.02402   0.02597   0.02939   0.03331

 Mulliken charges:
               1
     1  C   -0.303900
     2  C    0.583646
     3  C   -0.243017
     4  N   -0.428357
     5  C    0.065988
     6  C    0.224859
     7  C   -0.030294
     8  C   -0.583938
     9  C   -0.518435
    10  C   -0.204671
    11  C    0.328659
    12  C    0.127371
    13  C   -0.200303
    14  O   -0.420521
    15  O   -0.215686
    16  C    0.090152
    17  C   -0.427942
    18  C   -0.530530
    19  O   -0.318284
    20  C   -0.107991
    21  C   -0.267047
    22  C   -0.408178
    23  C   -0.099221
    24  C   -0.029330
    25  O   -0.338255
    26  H    0.142641
    27  H    0.161303
    28  H    0.147363
    29  H    0.151457
    30  H    0.173252
    31  H    0.133286
    32  H    0.144381
    33  H    0.147600
    34  H    0.158331
    35  H    0.120362
    36  H    0.184324
    37  H    0.194763
    38  H    0.159324
    39  H    0.151669
    40  H    0.171073
    41  H    0.151060
    42  H    0.151227
    43  H    0.158347
    44  H    0.156123
    45  H    0.154557
    46  H    0.158031
    47  H    0.159917
    48  H    0.169172
    49  H    0.161163
    50  H    0.151185
    51  H    0.169757
    52  H    0.173558
 Sum of Mulliken charges =  -0.00000

 Dipole moment (field-independent basis, Debye):
    X=              3.8153    Y=              0.4397    Z=              2.6634  Tot=              4.6737
 Quadrupole moment (field-independent basis, Debye-Ang):
   XX=           -170.8364   YY=           -152.9065   ZZ=           -152.4454
   XY=            -22.4521   XZ=            -21.8082   YZ=            -12.6623

 Normal termination of Gaussian 16 at Wed Aug  6 09:45:09 2025.
