 Gaussian 16, Revision C.02,
 Gaussian 16:  ES64L-G16RevC.02  7-Dec-2021

 ----------------------------------------------------------
 # td=(50-50,nstates=3) b3lyp/6-31+g(d,p) geom=connectivity
 ----------------------------------------------------------

 -------------------
 Title Card Required
 -------------------
 Symbolic Z-matrix:
 Charge =  0 Multiplicity = 1

                         Standard orientation:
 ---------------------------------------------------------------------
 Center     Atomic      Atomic             Coordinates (Angstroms)
 Number     Number       Type             X           Y           Z
 ---------------------------------------------------------------------
      1          6           0        6.687510   -0.140998   -0.000191
      2          6           0        5.431937    0.712956   -0.000207
      3          8           0        4.297755   -0.151630    0.000149
      4          6           0        3.070763    0.541890    0.000134
      5          6           0        1.944084   -0.476163    0.000035
      6          6           0        2.357789   -1.844732   -0.000167
      7          7           0        2.638031   -2.976417   -0.000305
      8          6           0        0.583785   -0.217356    0.000117
      9          6           0       -0.371483   -1.304665    0.000089
     10          6           0       -1.720214   -1.109262    0.000058
     11          8           0       -2.638918   -2.092420    0.000103
     12          6           0       -2.214571   -3.457264    0.000258
     13          6           0       -2.280565    0.241381   -0.000039
     14          6           0       -3.649785    0.501255   -0.000104
     15          6           0       -4.104995    1.857132   -0.000243
     16          7           0       -4.449464    2.970814   -0.000358
     17          6           0       -4.702570   -0.463707   -0.000080
     18          7           0       -5.640020   -1.156046   -0.000069
     19          6           0       -1.340819    1.327799   -0.000056
     20          6           0        0.011288    1.132687    0.000137
     21          8           0        0.910693    2.140866    0.000314
     22          6           0        0.444121    3.495456    0.000261
     23          1           0        7.576239    0.498674   -0.000474
     24          1           0        6.718860   -0.780334    0.886790
     25          1           0        6.718594   -0.780756   -0.886878
     26          1           0        5.399656    1.362610   -0.890031
     27          1           0        5.399918    1.363018    0.889329
     28          1           0        2.987475    1.192684    0.884096
     29          1           0        2.987552    1.192777   -0.883772
     30          1           0        0.023854   -2.310971    0.000058
     31          1           0       -1.626902   -3.681641   -0.896844
     32          1           0       -1.626946   -3.681477    0.897436
     33          1           0       -3.132881   -4.043212    0.000284
     34          1           0       -1.743166    2.331325   -0.000183
     35          1           0        1.342425    4.112102    0.000452
     36          1           0       -0.149019    3.701909   -0.896680
     37          1           0       -0.149370    3.701858    0.896981
 ---------------------------------------------------------------------

 SCF Done:  E(RB3LYP) =  -1008.59262021     A.U. after   17 cycles

 Excitation energies and oscillator strengths:

 Excited State   1:      Triplet-A      0.9202 eV 1347.34 nm  f=0.0000  <S**2>=2.000
      78 -> 79         0.74234
      78 <- 79         0.25796
 This state for optimization and/or second-order correction.
 Total Energy, E(TD-HF/TD-DFT) =  -1008.55880291
 Copying the excited state density for this state as the 1-particle RhoCI density.

 Excited State   2:      Triplet-A      2.0597 eV  601.95 nm  f=0.0000  <S**2>=2.000
      77 -> 79         0.69646

 Excited State   3:      Singlet-A      2.7023 eV  458.81 nm  f=0.0610  <S**2>=0.000
      77 -> 79         0.65549
      78 -> 79         0.25272

 Excited State   4:      Singlet-A      2.9488 eV  420.46 nm  f=0.7853  <S**2>=0.000
      76 -> 79         0.17413
      77 -> 79        -0.24460
      78 -> 79         0.64704
      78 <- 79        -0.13525

 Excited State   5:      Triplet-A      3.1749 eV  390.52 nm  f=0.0000  <S**2>=2.000
      75 -> 79         0.32407
      76 -> 79         0.58623
      78 -> 80        -0.20274

 Excited State   6:      Singlet-A      3.3786 eV  366.96 nm  f=0.0999  <S**2>=0.000
      76 -> 79         0.68289
      78 -> 79        -0.16635

 The electronic state is 1-A.
 Alpha  occ. eigenvalues --  -19.24099 -19.22443 -19.18236 -14.36247 -14.36084
 Alpha  occ. eigenvalues --  -14.35085 -10.31249 -10.30217 -10.28332 -10.28238
 Alpha  occ. eigenvalues --  -10.27705 -10.27681 -10.27654 -10.26845 -10.26711
 Alpha  occ. eigenvalues --  -10.25662 -10.25634 -10.25269 -10.24829 -10.23553
 Alpha  occ. eigenvalues --  -10.23234 -10.19344  -1.12549  -1.11249  -1.06720
 Alpha  occ. eigenvalues --   -0.93707  -0.93042  -0.91610  -0.90739  -0.86877
 Alpha  occ. eigenvalues --   -0.82336  -0.80633  -0.78415  -0.76594  -0.75264
 Alpha  occ. eigenvalues --   -0.71561  -0.68804  -0.67062  -0.63770  -0.62951
 Alpha  occ. eigenvalues --   -0.59985  -0.58597  -0.56927  -0.54893  -0.53212
 Alpha  occ. eigenvalues --   -0.52160  -0.51134  -0.51105  -0.50940  -0.50298
 Alpha  occ. eigenvalues --   -0.48883  -0.47935  -0.46753  -0.46244  -0.44281
 Alpha  occ. eigenvalues --   -0.44279  -0.41741  -0.41645  -0.40625  -0.39821
 Alpha  occ. eigenvalues --   -0.39226  -0.38981  -0.38775  -0.38662  -0.38291
 Alpha  occ. eigenvalues --   -0.38046  -0.37474  -0.37346  -0.35709  -0.35485
 Alpha  occ. eigenvalues --   -0.35465  -0.34239  -0.34075  -0.33349  -0.32572
 Alpha  occ. eigenvalues --   -0.28838  -0.26618  -0.23997
 Alpha virt. eigenvalues --   -0.14233  -0.04731  -0.02157  -0.02099  -0.01502
 Alpha virt. eigenvalues --   -0.00459  -0.00223   0.00532   0.00761   0.01418
 Alpha virt. eigenvalues --    0.01510   0.01895   0.02725   0.02937   0.03383

 Mulliken charges:
               1
     1  C   -0.642647
     2  C    0.318411
     3  O   -0.309707
     4  C    0.041156
     5  C    0.438732
     6  C   -0.425920
     7  N   -0.482637
     8  C    0.692178
     9  C   -0.724504
    10  C    0.085959
    11  O   -0.341208
    12  C   -0.120059
    13  C    0.914082
    14  C    0.870003
    15  C   -0.594248
    16  N   -0.481783
    17  C    0.091860
    18  N   -0.529023
    19  C   -0.715904
    20  C    0.122396
    21  O   -0.378359
    22  C   -0.114974
    23  H    0.145271
    24  H    0.165423
    25  H    0.165431
    26  H    0.117929
    27  H    0.117930
    28  H    0.152039
    29  H    0.152024
    30  H    0.150470
    31  H    0.156894
    32  H    0.156894
    33  H    0.169906
    34  H    0.149005
    35  H    0.158422
    36  H    0.164276
    37  H    0.164279
 Sum of Mulliken charges =  -0.00000

 Dipole moment (field-independent basis, Debye):
    X=              6.8126    Y=              3.1399    Z=              0.0007  Tot=              7.5014
 Quadrupole moment (field-independent basis, Debye-Ang):
   XX=           -170.0973   YY=           -129.0838   ZZ=           -128.9463
   XY=             25.9979   XZ=             -0.0034   YZ=             -0.0004

 Normal termination of Gaussian 16 at Wed Aug  6 09:34:50 2025.
