 Gaussian 16, Revision C.02,
 Gaussian 16:  ES64L-G16RevC.02  7-Dec-2021

 ----------------------------------------------------------
 # td=(50-50,nstates=3) b3lyp/6-31+g(d,p) geom=connectivity
 ----------------------------------------------------------

 -------------------
 Title Card Required
 -------------------
 Symbolic Z-matrix:
 Charge =  0 Multiplicity = 1

                         Standard orientation:
 ---------------------------------------------------------------------
 Center     Atomic      Atomic             Coordinates (Angstroms)
 Number     Number       Type             X           Y           Z
 ---------------------------------------------------------------------
      1          6           0        4.834411    2.096074    1.170702
      2          6           0        5.639200    1.384491    0.061386
      3          6           0        5.167141    1.910066   -1.311740
      4          6           0        7.137906    1.717940    0.236722
      5         14           0        5.379432   -0.528002    0.172120
      6          6           0        6.370946   -1.408432   -1.182576
      7          6           0        5.950940   -1.174258    1.859463
      8          6           0        3.538141   -0.946286   -0.052888
      9          6           0        2.981478   -1.176080   -1.329350
     10          6           0        1.639092   -1.496898   -1.497275
     11          6           0        0.766480   -1.537786   -0.388904
     12          7           0       -0.547710   -1.922712   -0.667618
     13          6           0       -1.662488   -1.411580   -0.258289
     14          6           0       -2.874970   -2.079957   -0.728216
     15          6           0       -4.167616   -1.685513   -0.640433
     16          6           0       -4.712701   -0.402974   -0.213122
     17          6           0       -6.014148   -0.376935    0.256971
     18          6           0       -6.664170    0.787929    0.777513
     19          7           0       -7.237786    1.696040    1.227313
     20          6           0       -6.808062   -1.569142    0.321123
     21          7           0       -7.458326   -2.533816    0.369183
     22          6           0       -3.933463    0.853111   -0.355708
     23          6           0       -4.557035    1.990392   -0.900291
     24          6           0       -3.879761    3.202835   -1.010902
     25          6           0       -2.567453    3.315595   -0.547791
     26          6           0       -1.932281    2.200846   -0.004981
     27          6           0       -2.588635    0.963472    0.062848
     28          6           0       -1.785951   -0.175793    0.613835
     29          8           0       -1.164317   -0.058728    1.656969
     30          6           0        1.303495   -1.330031    0.897135
     31          6           0        2.663685   -1.053873    1.044571
     32          1           0        5.154525    1.789061    2.173067
     33          1           0        4.977079    3.184128    1.104291
     34          1           0        3.759598    1.900413    1.086115
     35          1           0        5.727880    1.461034   -2.139828
     36          1           0        5.315295    2.997726   -1.372633
     37          1           0        4.102177    1.714817   -1.480328
     38          1           0        7.293541    2.804568    0.177185
     39          1           0        7.522881    1.388912    1.208782
     40          1           0        7.756563    1.259264   -0.543193
     41          1           0        6.195510   -2.489426   -1.143365
     42          1           0        7.445846   -1.243083   -1.048972
     43          1           0        6.108719   -1.066502   -2.189462
     44          1           0        5.434496   -0.690500    2.695347
     45          1           0        5.771718   -2.252493    1.937830
     46          1           0        7.025224   -1.007344    1.996293
     47          1           0        3.612009   -1.131342   -2.213551
     48          1           0        1.236176   -1.710340   -2.482549
     49          1           0       -2.675558   -3.063020   -1.146346
     50          1           0       -4.912030   -2.422945   -0.928622
     51          1           0       -5.578108    1.922064   -1.256891
     52          1           0       -4.383119    4.058072   -1.450423
     53          1           0       -2.040166    4.262134   -0.613478
     54          1           0       -0.914176    2.269268    0.363956
     55          1           0        0.664986   -1.411750    1.765981
     56          1           0        3.043081   -0.920744    2.054398
 ---------------------------------------------------------------------

 SCF Done:  E(RB3LYP) =  -1534.82486654     A.U. after   19 cycles

 Excitation energies and oscillator strengths:

 Excited State   1:      Triplet-A      1.5153 eV  818.20 nm  f=0.0000  <S**2>=2.000
     106 ->113        -0.10512
     109 ->113        -0.11002
     110 ->113        -0.20909
     112 ->113         0.62904
     112 ->114         0.11518
 This state for optimization and/or second-order correction.
 Total Energy, E(TD-HF/TD-DFT) =  -1534.76917902
 Copying the excited state density for this state as the 1-particle RhoCI density.

 Excited State   2:      Triplet-A      1.9223 eV  644.99 nm  f=0.0000  <S**2>=2.000
     106 ->113         0.10949
     110 ->113         0.62702
     112 ->113         0.19311
     112 ->114         0.14957

 Excited State   3:      Singlet-A      2.0924 eV  592.55 nm  f=0.1688  <S**2>=0.000
     110 ->113         0.15155
     112 ->113         0.67504

 Excited State   4:      Triplet-A      2.7043 eV  458.47 nm  f=0.0000  <S**2>=2.000
     107 ->113         0.16365
     108 ->113        -0.33864
     108 ->114        -0.15641
     109 ->113        -0.12142
     110 ->114         0.16421
     111 ->113         0.43008
     112 ->114         0.16160
     112 ->115        -0.10518

 Excited State   5:      Singlet-A      2.9142 eV  425.45 nm  f=0.0059  <S**2>=0.000
     110 ->113         0.13201
     111 ->113         0.66360
     112 ->114         0.11141

 Excited State   6:      Singlet-A      3.0416 eV  407.63 nm  f=0.1210  <S**2>=0.000
     108 ->113        -0.26816
     108 ->114        -0.11364
     109 ->113        -0.30839
     110 ->113         0.26113
     110 ->114         0.10199
     111 ->113        -0.22130
     112 ->113        -0.17063
     112 ->114         0.35943

 The electronic state is 1-A.
 Alpha  occ. eigenvalues --  -66.13160 -19.18982 -14.38175 -14.37169 -14.36953
 Alpha  occ. eigenvalues --  -10.32139 -10.29721 -10.28842 -10.28425 -10.26428
 Alpha  occ. eigenvalues --  -10.26327 -10.25811 -10.24893 -10.24891 -10.24853
 Alpha  occ. eigenvalues --  -10.24749 -10.23726 -10.23597 -10.23430 -10.23364
 Alpha  occ. eigenvalues --  -10.20876 -10.20811 -10.20745 -10.20685 -10.19454
 Alpha  occ. eigenvalues --  -10.19333 -10.18450 -10.18319 -10.18247 -10.17305
 Alpha  occ. eigenvalues --  -10.17268  -5.27542  -3.63459  -3.63422  -3.63374
 Alpha  occ. eigenvalues --   -1.08750  -0.97027  -0.94878  -0.93110  -0.91597
 Alpha  occ. eigenvalues --   -0.88036  -0.86679  -0.83095  -0.80709  -0.80360
 Alpha  occ. eigenvalues --   -0.79629  -0.77367  -0.76145  -0.72978  -0.71005
 Alpha  occ. eigenvalues --   -0.69542  -0.69334  -0.69009  -0.68408  -0.67903
 Alpha  occ. eigenvalues --   -0.64700  -0.63023  -0.62178  -0.61304  -0.59553
 Alpha  occ. eigenvalues --   -0.56688  -0.56091  -0.55632  -0.55089  -0.51392
 Alpha  occ. eigenvalues --   -0.50701  -0.50188  -0.49331  -0.47856  -0.47565
 Alpha  occ. eigenvalues --   -0.47119  -0.46759  -0.46365  -0.45220  -0.44769
 Alpha  occ. eigenvalues --   -0.44131  -0.43962  -0.43587  -0.43303  -0.42858
 Alpha  occ. eigenvalues --   -0.41648  -0.41262  -0.40617  -0.40260  -0.40078
 Alpha  occ. eigenvalues --   -0.40017  -0.39715  -0.39611  -0.39476  -0.39134
 Alpha  occ. eigenvalues --   -0.38792  -0.38656  -0.38605  -0.37730  -0.37067
 Alpha  occ. eigenvalues --   -0.36976  -0.36689  -0.36166  -0.35640  -0.34557
 Alpha  occ. eigenvalues --   -0.33747  -0.33671  -0.32985  -0.31195  -0.30985
 Alpha  occ. eigenvalues --   -0.29818  -0.29106  -0.28943  -0.27502  -0.27180
 Alpha  occ. eigenvalues --   -0.26782  -0.23898
 Alpha virt. eigenvalues --   -0.14076  -0.09534  -0.07155  -0.04730  -0.02726
 Alpha virt. eigenvalues --   -0.02485  -0.02449  -0.01612  -0.01307  -0.00994
 Alpha virt. eigenvalues --   -0.00155   0.00264   0.00496   0.01026   0.01142

 Mulliken charges:
               1
     1  C   -0.502090
     2  C    0.087220
     3  C   -0.512982
     4  C   -0.463963
     5  Si   0.794808
     6  C   -0.621152
     7  C   -0.616504
     8  C   -0.705130
     9  C   -0.272493
    10  C    0.076834
    11  C   -0.117094
    12  N   -0.001858
    13  C   -0.274363
    14  C   -0.191000
    15  C   -0.691392
    16  C    0.869642
    17  C    1.145467
    18  C   -0.145238
    19  N   -0.479687
    20  C   -0.112553
    21  N   -0.485748
    22  C    0.576023
    23  C   -0.454598
    24  C   -0.084092
    25  C   -0.308911
    26  C   -0.371571
    27  C    0.439758
    28  C   -0.271657
    29  O   -0.331431
    30  C    0.097076
    31  C    0.202682
    32  H    0.143296
    33  H    0.142711
    34  H    0.159125
    35  H    0.142767
    36  H    0.142878
    37  H    0.158325
    38  H    0.145737
    39  H    0.148134
    40  H    0.147574
    41  H    0.169214
    42  H    0.161243
    43  H    0.157564
    44  H    0.159472
    45  H    0.169968
    46  H    0.160860
    47  H    0.115136
    48  H    0.129608
    49  H    0.156888
    50  H    0.165749
    51  H    0.143474
    52  H    0.143903
    53  H    0.143462
    54  H    0.153362
    55  H    0.148610
    56  H    0.116936
 Sum of Mulliken charges =  -0.00000

 Dipole moment (field-independent basis, Debye):
    X=              5.7370    Y=              2.1037    Z=             -3.5261  Tot=              7.0549
 Quadrupole moment (field-independent basis, Debye-Ang):
   XX=           -236.2746   YY=           -193.1845   ZZ=           -194.7940
   XY=             -7.8844   XZ=             19.2362   YZ=             -4.6878

 Normal termination of Gaussian 16 at Wed Aug  6 09:54:47 2025.
