 Gaussian 16, Revision C.02,
 Gaussian 16:  ES64L-G16RevC.02  7-Dec-2021

 ----------------------------------------------------------
 # td=(50-50,nstates=3) b3lyp/6-31+g(d,p) geom=connectivity
 ----------------------------------------------------------

 -------------------
 Title Card Required
 -------------------
 Symbolic Z-matrix:
 Charge =  0 Multiplicity = 1

                         Standard orientation:
 ---------------------------------------------------------------------
 Center     Atomic      Atomic             Coordinates (Angstroms)
 Number     Number       Type             X           Y           Z
 ---------------------------------------------------------------------
      1          6           0        1.341506   -2.307985   -2.127301
      2          7           0        1.435533   -1.094984   -1.324580
      3          6           0        0.359302   -0.114884   -1.415988
      4          6           0       -0.366748    0.119016   -0.059376
      5          6           0       -1.226208    1.379790   -0.066154
      6          6           0       -1.892829    1.841621   -1.211331
      7          6           0       -2.684717    2.993845   -1.167020
      8          6           0       -2.823729    3.707017    0.024832
      9          6           0       -2.162262    3.260549    1.172719
     10          6           0       -1.372710    2.110962    1.123445
     11          6           0       -1.132034   -1.134163    0.369781
     12          6           0       -0.546262   -2.032553    1.272988
     13          6           0       -1.205085   -3.206688    1.649374
     14          6           0       -2.465192   -3.502455    1.124805
     15          6           0       -3.061134   -2.613043    0.225698
     16          6           0       -2.400807   -1.439684   -0.145801
     17          7           0        2.695790   -0.737622   -1.013488
     18          6           0        2.993725    0.422314   -0.542246
     19          6           0        4.442146    0.700792   -0.206524
     20          6           0        4.633325    1.028538    1.214749
     21          7           0        4.760782    1.296653    2.337914
     22          1           0        2.158709   -2.971230   -1.842222
     23          1           0        0.390350   -2.806739   -1.924716
     24          1           0        1.414786   -2.098982   -3.206398
     25          1           0        0.761846    0.837375   -1.791718
     26          1           0       -0.353951   -0.478947   -2.160749
     27          1           0        0.414726    0.274808    0.692056
     28          1           0       -1.799921    1.308777   -2.153182
     29          1           0       -3.190233    3.332471   -2.067096
     30          1           0       -3.436858    4.602776    0.058956
     31          1           0       -2.257262    3.809075    2.105498
     32          1           0       -0.862125    1.771983    2.021623
     33          1           0        0.435212   -1.811991    1.684280
     34          1           0       -0.733243   -3.886352    2.353376
     35          1           0       -2.981168   -4.412133    1.418002
     36          1           0       -4.045343   -2.827935   -0.181247
     37          1           0       -2.886853   -0.749477   -0.829426
     38          1           0        2.274850    1.218742   -0.344955
     39          1           0        5.040670   -0.181438   -0.454640
     40          1           0        4.829348    1.542956   -0.796272
 ---------------------------------------------------------------------

 SCF Done:  E(RB3LYP) =  -861.607642429     A.U. after   16 cycles

 Excitation energies and oscillator strengths:

 Excited State   1:      Triplet-A      3.2900 eV  376.85 nm  f=0.0000  <S**2>=2.000
      74 -> 75         0.21431
      74 -> 76        -0.14077
      74 -> 77        -0.12362
      74 -> 78         0.56868
      74 -> 79        -0.14286
      74 -> 80        -0.17877
 This state for optimization and/or second-order correction.
 Total Energy, E(TD-HF/TD-DFT) =  -861.486735860
 Copying the excited state density for this state as the 1-particle RhoCI density.

 Excited State   2:      Triplet-A      3.7113 eV  334.07 nm  f=0.0000  <S**2>=2.000
      70 -> 76        -0.30518
      71 -> 75         0.18945
      71 -> 77        -0.19348
      71 -> 79         0.14517
      72 -> 77        -0.16407
      72 -> 79        -0.22332
      73 -> 75         0.35115
      73 -> 77         0.23042

 Excited State   3:      Triplet-A      3.7225 eV  333.06 nm  f=0.0000  <S**2>=2.000
      70 -> 75        -0.12326
      70 -> 76         0.14955
      70 -> 77        -0.26406
      71 -> 75        -0.23364
      71 -> 76        -0.18327
      71 -> 79        -0.14337
      72 -> 75         0.22296
      72 -> 76        -0.10859
      72 -> 77        -0.16205
      72 -> 78        -0.11851
      72 -> 79        -0.10496
      73 -> 76         0.26713
      73 -> 79        -0.26184

 Excited State   4:      Singlet-A      4.7226 eV  262.53 nm  f=0.0355  <S**2>=0.000
      74 -> 75         0.69456

 Excited State   5:      Singlet-A      4.8675 eV  254.72 nm  f=0.0054  <S**2>=0.000
      74 -> 76         0.62663
      74 -> 77         0.30529

 Excited State   6:      Singlet-A      4.9394 eV  251.01 nm  f=0.0017  <S**2>=0.000
      74 -> 76        -0.31387
      74 -> 77         0.61849
      74 -> 78         0.10769

 The electronic state is 1-A.
 Alpha  occ. eigenvalues --  -14.39497 -14.38602 -14.34077 -10.24382 -10.23998
 Alpha  occ. eigenvalues --  -10.23495 -10.23461 -10.22355 -10.21830 -10.21381
 Alpha  occ. eigenvalues --  -10.21007 -10.20528 -10.20456 -10.20384 -10.20291
 Alpha  occ. eigenvalues --  -10.20194 -10.20178 -10.20113 -10.20033 -10.19952
 Alpha  occ. eigenvalues --  -10.19891  -1.02891  -0.90932  -0.88123  -0.86600
 Alpha  occ. eigenvalues --   -0.86120  -0.81355  -0.78111  -0.75799  -0.75494
 Alpha  occ. eigenvalues --   -0.75217  -0.74289  -0.68475  -0.66760  -0.62247
 Alpha  occ. eigenvalues --   -0.61291  -0.60811  -0.58574  -0.56978  -0.54582
 Alpha  occ. eigenvalues --   -0.52867  -0.51787  -0.51617  -0.50119  -0.47938
 Alpha  occ. eigenvalues --   -0.47539  -0.46944  -0.45757  -0.45513  -0.45158
 Alpha  occ. eigenvalues --   -0.43829  -0.43267  -0.42853  -0.42709  -0.41951
 Alpha  occ. eigenvalues --   -0.41320  -0.40019  -0.38401  -0.37636  -0.37356
 Alpha  occ. eigenvalues --   -0.36859  -0.36456  -0.35703  -0.34862  -0.34557
 Alpha  occ. eigenvalues --   -0.34083  -0.33386  -0.32937  -0.28938  -0.26548
 Alpha  occ. eigenvalues --   -0.26456  -0.26076  -0.25027  -0.22513
 Alpha virt. eigenvalues --   -0.02888  -0.02440  -0.02140  -0.01762  -0.01323
 Alpha virt. eigenvalues --   -0.00695   0.00494   0.00586   0.00745   0.01826
 Alpha virt. eigenvalues --    0.02202   0.02452   0.02670   0.02710   0.03183

 Mulliken charges:
               1
     1  C   -0.186097
     2  N    0.296805
     3  C   -1.443899
     4  C    0.496659
     5  C    0.082970
     6  C   -0.016406
     7  C   -0.139140
     8  C   -0.004188
     9  C   -0.076357
    10  C   -0.386448
    11  C    0.152688
    12  C    0.018009
    13  C   -0.254372
    14  C   -0.079456
    15  C   -0.519848
    16  C   -0.217705
    17  N    0.085152
    18  C    0.231848
    19  C   -0.364474
    20  C    0.194232
    21  N   -0.494549
    22  H    0.163834
    23  H    0.163638
    24  H    0.134715
    25  H    0.147234
    26  H    0.148635
    27  H    0.126928
    28  H    0.099407
    29  H    0.124980
    30  H    0.126267
    31  H    0.129276
    32  H    0.115696
    33  H    0.118248
    34  H    0.127297
    35  H    0.124987
    36  H    0.125744
    37  H    0.126027
    38  H    0.128275
    39  H    0.202945
    40  H    0.190442
 Sum of Mulliken charges =  -0.00000

 Dipole moment (field-independent basis, Debye):
    X=             -2.8692    Y=             -0.7154    Z=             -4.2216  Tot=              5.1542
 Quadrupole moment (field-independent basis, Debye-Ang):
   XX=           -135.0636   YY=           -119.7712   ZZ=           -129.9940
   XY=             -4.7613   XZ=            -13.5073   YZ=             -4.9988

 Normal termination of Gaussian 16 at Wed Aug  6 09:51:37 2025.
