 Gaussian 16, Revision C.02,
 Gaussian 16:  ES64L-G16RevC.02  7-Dec-2021

 ----------------------------------------------------------
 # td=(50-50,nstates=3) b3lyp/6-31+g(d,p) geom=connectivity
 ----------------------------------------------------------

 -------------------
 Title Card Required
 -------------------
 Symbolic Z-matrix:
 Charge =  0 Multiplicity = 1

                         Standard orientation:
 ---------------------------------------------------------------------
 Center     Atomic      Atomic             Coordinates (Angstroms)
 Number     Number       Type             X           Y           Z
 ---------------------------------------------------------------------
      1          6           0        5.837664    0.443609    0.093528
      2          6           0        4.445709   -0.074739   -0.283106
      3          6           0        3.359911    0.351059    0.727864
      4          6           0        2.003729   -0.196873    0.399432
      5          6           0        0.912896    0.559377    0.164516
      6          6           0       -0.426591    0.092361   -0.145404
      7          6           0       -1.486811    0.906043   -0.369804
      8          6           0       -1.491905    2.324342   -0.366175
      9          7           0       -1.501825    3.489859   -0.379004
     10          6           0       -2.735649    0.074233   -0.621247
     11          6           0       -3.705565    0.181300    0.501207
     12          7           0       -4.469332    0.260818    1.372035
     13          8           0       -2.252708   -1.245538   -0.765064
     14          6           0       -0.884601   -1.374545   -0.255935
     15          6           0       -0.933079   -2.084425    1.103108
     16          7           0       -0.181718   -2.181094   -1.210095
     17          1           0        6.586840    0.130727   -0.640945
     18          1           0        5.853884    1.538475    0.140025
     19          1           0        6.151035    0.064084    1.073030
     20          1           0        4.466893   -1.170897   -0.350892
     21          1           0        4.169023    0.291933   -1.279598
     22          1           0        3.315903    1.445276    0.788797
     23          1           0        3.655526   -0.009384    1.725075
     24          1           0        1.931988   -1.281690    0.344831
     25          1           0        1.019219    1.642399    0.215739
     26          1           0       -3.259623    0.367641   -1.539880
     27          1           0        0.061857   -2.169282    1.549706
     28          1           0       -1.573750   -1.534273    1.795584
     29          1           0       -1.353513   -3.083519    0.959746
     30          1           0        0.169473   -1.676660   -2.015012
     31          1           0        0.522782   -2.788068   -0.814157
 ---------------------------------------------------------------------

 SCF Done:  E(RB3LYP) =  -705.764957127     A.U. after   15 cycles

 Excitation energies and oscillator strengths:

 Excited State   1:      Triplet-A      2.4039 eV  515.77 nm  f=0.0000  <S**2>=2.000
      58 -> 59         0.70184
      58 <- 59         0.13238
 This state for optimization and/or second-order correction.
 Total Energy, E(TD-HF/TD-DFT) =  -705.676616884
 Copying the excited state density for this state as the 1-particle RhoCI density.

 Excited State   2:      Triplet-A      3.8688 eV  320.47 nm  f=0.0000  <S**2>=2.000
      54 -> 59        -0.15472
      57 -> 59         0.66020

 Excited State   3:      Singlet-A      4.0845 eV  303.54 nm  f=0.0079  <S**2>=0.000
      57 -> 59         0.70442

 Excited State   4:      Triplet-A      4.3887 eV  282.51 nm  f=0.0000  <S**2>=2.000
      49 -> 59         0.10567
      54 -> 59         0.39693
      55 -> 59         0.23504
      56 -> 59         0.29754
      57 -> 59         0.23555
      58 -> 61         0.15466
      58 -> 62         0.15105
      58 -> 63        -0.17247
      58 -> 64        -0.11131

 Excited State   5:      Singlet-A      4.5772 eV  270.87 nm  f=0.6484  <S**2>=0.000
      58 -> 59         0.69249

 Excited State   6:      Singlet-A      4.9488 eV  250.54 nm  f=0.0252  <S**2>=0.000
      56 -> 59         0.69775

 The electronic state is 1-A.
 Alpha  occ. eigenvalues --  -19.19193 -14.36347 -14.35843 -14.35704 -10.31732
 Alpha  occ. eigenvalues --  -10.31621 -10.26334 -10.25651 -10.25469 -10.24554
 Alpha  occ. eigenvalues --  -10.23752 -10.23128 -10.21816 -10.21213 -10.20788
 Alpha  occ. eigenvalues --  -10.19732  -1.08861  -0.93159  -0.92927  -0.91905
 Alpha  occ. eigenvalues --   -0.86986  -0.83665  -0.80113  -0.77857  -0.74245
 Alpha  occ. eigenvalues --   -0.71302  -0.67316  -0.63669  -0.61472  -0.60165
 Alpha  occ. eigenvalues --   -0.55943  -0.55900  -0.53455  -0.51860  -0.49732
 Alpha  occ. eigenvalues --   -0.48341  -0.47711  -0.45206  -0.44152  -0.43540
 Alpha  occ. eigenvalues --   -0.42750  -0.41620  -0.41152  -0.39940  -0.39413
 Alpha  occ. eigenvalues --   -0.38298  -0.38105  -0.37813  -0.37026  -0.36643
 Alpha  occ. eigenvalues --   -0.36090  -0.35608  -0.35164  -0.34046  -0.33897
 Alpha  occ. eigenvalues --   -0.30876  -0.27784  -0.26520
 Alpha virt. eigenvalues --   -0.09580  -0.02413  -0.01150  -0.00529  -0.00429
 Alpha virt. eigenvalues --   -0.00378   0.00145   0.00770   0.01347   0.02079
 Alpha virt. eigenvalues --    0.02736   0.03161   0.03817   0.04138   0.04825

 Mulliken charges:
               1
     1  C   -0.628966
     2  C   -0.114818
     3  C   -0.536896
     4  C    0.313203
     5  C   -0.494689
     6  C    0.467274
     7  C    0.279357
     8  C   -0.467350
     9  N   -0.550833
    10  C    0.522314
    11  C    0.158483
    12  N   -0.451787
    13  O   -0.228991
    14  C    0.194621
    15  C   -0.480261
    16  N   -0.545701
    17  H    0.151841
    18  H    0.151577
    19  H    0.148361
    20  H    0.138317
    21  H    0.148791
    22  H    0.146355
    23  H    0.155597
    24  H    0.110759
    25  H    0.143589
    26  H    0.184846
    27  H    0.148489
    28  H    0.172793
    29  H    0.183566
    30  H    0.294966
    31  H    0.285191
 Sum of Mulliken charges =  -0.00000

 Dipole moment (field-independent basis, Debye):
    X=              7.0845    Y=             -3.4503    Z=             -1.1516  Tot=              7.9637
 Quadrupole moment (field-independent basis, Debye-Ang):
   XX=           -107.7823   YY=           -111.5139   ZZ=            -98.4935
   XY=              0.7687   XZ=              8.8693   YZ=             -3.1962

 Normal termination of Gaussian 16 at Wed Aug  6 09:41:39 2025.
