 Gaussian 16, Revision C.02,
 Gaussian 16:  ES64L-G16RevC.02  7-Dec-2021

 ----------------------------------------------------------
 # td=(50-50,nstates=3) b3lyp/6-31+g(d,p) geom=connectivity
 ----------------------------------------------------------

 -------------------
 Title Card Required
 -------------------
 Symbolic Z-matrix:
 Charge =  0 Multiplicity = 1

                         Standard orientation:
 ---------------------------------------------------------------------
 Center     Atomic      Atomic             Coordinates (Angstroms)
 Number     Number       Type             X           Y           Z
 ---------------------------------------------------------------------
      1          6           0       -3.291925   -1.584183    0.000014
      2          6           0       -2.498389   -0.271219    0.000036
      3          6           0       -2.808028    0.516831   -1.281127
      4          6           0       -2.807248    0.516401    1.281640
      5          8           0       -1.116218   -0.752354   -0.000411
      6          6           0        0.012448    0.007931   -0.000175
      7          6           0        0.097793    1.409435   -0.000104
      8          6           0        1.350171    2.035205    0.000022
      9          6           0        2.529983    1.299848    0.000056
     10          6           0        2.443759   -0.105112   -0.000033
     11          6           0        3.643432   -0.895886    0.000006
     12          7           0        4.619000   -1.530604    0.000033
     13          6           0        1.199649   -0.743947   -0.000133
     14          1           0       -3.049015   -2.176942    0.886541
     15          1           0       -4.366497   -1.377965    0.000350
     16          1           0       -3.049501   -2.176625   -0.886854
     17          1           0       -2.293702    1.478316   -1.331643
     18          1           0       -3.883566    0.714296   -1.334710
     19          1           0       -2.524893   -0.069087   -2.160687
     20          1           0       -3.882775    0.713698    1.336057
     21          1           0       -2.523391   -0.069757    2.160811
     22          1           0       -2.293071    1.477971    1.332043
     23          1           0       -0.789381    2.025358   -0.000123
     24          1           0        1.393652    3.120192    0.000085
     25          1           0        3.497940    1.787596    0.000156
     26          1           0        1.131071   -1.825813   -0.000184
 ---------------------------------------------------------------------

 SCF Done:  E(RB3LYP) =  -556.997958141     A.U. after   15 cycles

 Excitation energies and oscillator strengths:

 Excited State   1:      Triplet-A      3.3674 eV  368.19 nm  f=0.0000  <S**2>=2.000
      46 -> 48         0.40839
      47 -> 48         0.45605
      47 -> 49         0.32685
 This state for optimization and/or second-order correction.
 Total Energy, E(TD-HF/TD-DFT) =  -556.874207470
 Copying the excited state density for this state as the 1-particle RhoCI density.

 Excited State   2:      Triplet-A      3.6235 eV  342.17 nm  f=0.0000  <S**2>=2.000
      46 -> 48        -0.36065
      46 -> 49         0.11587
      47 -> 48         0.53156
      47 -> 49        -0.25859

 Excited State   3:      Triplet-A      4.1926 eV  295.72 nm  f=0.0000  <S**2>=2.000
      46 -> 48        -0.43303
      47 -> 49         0.54880

 Excited State   4:      Singlet-A      4.4903 eV  276.12 nm  f=0.0467  <S**2>=0.000
      46 -> 49        -0.21491
      47 -> 48         0.66138

 Excited State   5:      Singlet-A      5.3577 eV  231.41 nm  f=0.0282  <S**2>=0.000
      46 -> 48         0.47874
      47 -> 48         0.13078
      47 -> 49         0.49235

 Excited State   6:      Singlet-A      5.6356 eV  220.00 nm  f=0.0005  <S**2>=0.000
      47 -> 50         0.68652
      47 -> 51         0.15241

 The electronic state is 1-A.
 Alpha  occ. eigenvalues --  -19.19403 -14.34355 -10.27814 -10.27786 -10.24640
 Alpha  occ. eigenvalues --  -10.23531 -10.21951 -10.21698 -10.21679 -10.21616
 Alpha  occ. eigenvalues --  -10.19910 -10.19910 -10.19365  -1.07642  -0.91289
 Alpha  occ. eigenvalues --   -0.88059  -0.83095  -0.78823  -0.76130  -0.71628
 Alpha  occ. eigenvalues --   -0.71033  -0.66710  -0.63814  -0.60713  -0.53776
 Alpha  occ. eigenvalues --   -0.51946  -0.50200  -0.50067  -0.47906  -0.45895
 Alpha  occ. eigenvalues --   -0.45026  -0.43571  -0.43170  -0.41333  -0.40759
 Alpha  occ. eigenvalues --   -0.39769  -0.39286  -0.38848  -0.38271  -0.36918
 Alpha  occ. eigenvalues --   -0.35817  -0.35688  -0.33672  -0.33256  -0.32984
 Alpha  occ. eigenvalues --   -0.27294  -0.24392
 Alpha virt. eigenvalues --   -0.05743  -0.02524  -0.01056   0.00333   0.01407
 Alpha virt. eigenvalues --    0.01881   0.02417   0.02620   0.02922   0.03753
 Alpha virt. eigenvalues --    0.04715   0.04905   0.04947   0.05234   0.05982

 Mulliken charges:
               1
     1  C   -0.348984
     2  C    0.047370
     3  C   -0.423887
     4  C   -0.423927
     5  O   -0.273217
     6  C   -0.594389
     7  C    0.746845
     8  C   -0.022632
     9  C   -0.157632
    10  C    0.475191
    11  C   -0.198946
    12  N   -0.534737
    13  C   -0.205714
    14  H    0.160815
    15  H    0.148326
    16  H    0.160813
    17  H    0.140214
    18  H    0.153974
    19  H    0.162452
    20  H    0.153975
    21  H    0.162459
    22  H    0.140223
    23  H    0.104571
    24  H    0.133863
    25  H    0.144099
    26  H    0.148876
 Sum of Mulliken charges =  -0.00000

 Dipole moment (field-independent basis, Debye):
    X=             -6.0052    Y=              3.1278    Z=              0.0006  Tot=              6.7709
 Quadrupole moment (field-independent basis, Debye-Ang):
   XX=            -94.1773   YY=            -77.3919   ZZ=            -80.3521
   XY=             11.2226   XZ=             -0.0007   YZ=             -0.0002

 Normal termination of Gaussian 16 at Wed Aug  6 09:45:05 2025.
