 Gaussian 16, Revision C.02,
 Gaussian 16:  ES64L-G16RevC.02  7-Dec-2021

 ----------------------------------------------------------
 # td=(50-50,nstates=3) b3lyp/6-31+g(d,p) geom=connectivity
 ----------------------------------------------------------

 -------------------
 Title Card Required
 -------------------
 Symbolic Z-matrix:
 Charge =  0 Multiplicity = 1

                         Standard orientation:
 ---------------------------------------------------------------------
 Center     Atomic      Atomic             Coordinates (Angstroms)
 Number     Number       Type             X           Y           Z
 ---------------------------------------------------------------------
      1          6           0       -1.041590   -0.707499    3.955355
      2          6           0       -1.436945   -0.854058    2.515782
      3          6           0       -2.248182   -0.003462    1.865739
      4          6           0       -2.744953   -0.088377    0.478614
      5          6           0       -4.010296    0.472356    0.212191
      6          6           0       -4.605675    0.403790   -1.044993
      7          6           0       -3.935570   -0.221450   -2.098353
      8          6           0       -2.662342   -0.745569   -1.878064
      9          6           0       -2.065130   -0.677040   -0.613901
     10          7           0       -0.748754   -1.235253   -0.480489
     11          6           0        0.400194   -0.496495   -0.400443
     12          6           0        0.354005    0.885340   -0.358064
     13          6           0        1.516587    1.691707   -0.241894
     14          6           0        1.449311    3.088692   -0.196219
     15          6           0        2.616995    3.899158   -0.093849
     16          7           0        3.575042    4.558315   -0.009231
     17          6           0        0.201931    3.775937   -0.245612
     18          7           0       -0.825710    4.325116   -0.283145
     19          6           0        2.806926    1.033002   -0.177652
     20          6           0        2.887491   -0.315509   -0.221544
     21          6           0        1.716370   -1.167957   -0.325396
     22          6           0        1.927559   -2.544937   -0.343856
     23          6           0        0.920452   -3.550339   -0.451647
     24          7           0        0.121534   -4.394590   -0.548721
     25          6           0        3.249265   -3.089864   -0.259107
     26          7           0        4.316015   -3.551933   -0.188914
     27          1           0       -1.359980   -1.580492    4.539303
     28          1           0        0.049215   -0.643920    4.060878
     29          1           0       -1.480645    0.186953    4.407604
     30          1           0       -1.044040   -1.724687    1.995515
     31          1           0       -2.660252    0.833195    2.431152
     32          1           0       -4.541152    0.953742    1.028717
     33          1           0       -5.588609    0.837652   -1.200727
     34          1           0       -4.385808   -0.283558   -3.083910
     35          1           0       -2.107932   -1.202429   -2.692865
     36          1           0       -0.680746   -2.221373   -0.687697
     37          1           0       -0.611032    1.372193   -0.417042
     38          1           0        3.707383    1.631796   -0.095692
     39          1           0        3.858276   -0.795210   -0.174274
 ---------------------------------------------------------------------

 SCF Done:  E(RB3LYP) =  -1081.75564072     A.U. after   19 cycles

 Excitation energies and oscillator strengths:

 Excited State   1:      Triplet-A      0.5005 eV 2477.12 nm  f=0.0000  <S**2>=2.000
      85 -> 88        -0.21664
      86 -> 88         0.42039
      87 -> 88         0.63208
      85 <- 88        -0.13858
      86 <- 88         0.20181
      87 <- 88         0.27495
 This state for optimization and/or second-order correction.
 Total Energy, E(TD-HF/TD-DFT) =  -1081.73724703
 Copying the excited state density for this state as the 1-particle RhoCI density.

 Excited State   2:      Triplet-A      1.4457 eV  857.62 nm  f=0.0000  <S**2>=2.000
      84 -> 88         0.23686
      85 -> 88        -0.35664
      86 -> 88         0.40097
      87 -> 88        -0.39325

 Excited State   3:      Singlet-A      1.5349 eV  807.78 nm  f=0.0182  <S**2>=0.000
      86 -> 88        -0.40690
      87 -> 88         0.57506

 Excited State   4:      Triplet-A      1.6641 eV  745.06 nm  f=0.0000  <S**2>=2.000
      84 -> 88        -0.32302
      85 -> 88         0.42016
      86 -> 88         0.44568
      87 -> 88        -0.12581

 Excited State   5:      Singlet-A      1.8158 eV  682.82 nm  f=0.0769  <S**2>=0.000
      84 -> 88        -0.15787
      85 -> 88         0.26565
      86 -> 88         0.53626
      87 -> 88         0.34783

 Excited State   6:      Singlet-A      2.5435 eV  487.46 nm  f=0.0397  <S**2>=0.000
      84 -> 88         0.50740
      85 -> 88         0.48516

 The electronic state is 1-A.
 Alpha  occ. eigenvalues --  -14.41345 -14.39834 -14.38744 -14.37453 -14.37353
 Alpha  occ. eigenvalues --  -10.31905 -10.30784 -10.30409 -10.29887 -10.29117
 Alpha  occ. eigenvalues --  -10.28151 -10.27980 -10.26677 -10.26643 -10.26642
 Alpha  occ. eigenvalues --  -10.25942 -10.25849 -10.23779 -10.23589 -10.22693
 Alpha  occ. eigenvalues --  -10.22292 -10.22217 -10.22142 -10.21975 -10.21579
 Alpha  occ. eigenvalues --  -10.20529  -1.00862  -0.96920  -0.95278  -0.95015
 Alpha  occ. eigenvalues --   -0.93387  -0.92271  -0.88945  -0.88270  -0.83632
 Alpha  occ. eigenvalues --   -0.82723  -0.81057  -0.78085  -0.77549  -0.75791
 Alpha  occ. eigenvalues --   -0.70933  -0.68845  -0.68359  -0.64474  -0.63862
 Alpha  occ. eigenvalues --   -0.63401  -0.60624  -0.59627  -0.58453  -0.57318
 Alpha  occ. eigenvalues --   -0.55635  -0.53138  -0.51750  -0.49824  -0.49426
 Alpha  occ. eigenvalues --   -0.48854  -0.47788  -0.47240  -0.45811  -0.45534
 Alpha  occ. eigenvalues --   -0.44723  -0.44155  -0.43331  -0.42228  -0.41944
 Alpha  occ. eigenvalues --   -0.41701  -0.41142  -0.40612  -0.40187  -0.39883
 Alpha  occ. eigenvalues --   -0.39324  -0.39212  -0.39041  -0.38431  -0.38313
 Alpha  occ. eigenvalues --   -0.38118  -0.37610  -0.37180  -0.37060  -0.35981
 Alpha  occ. eigenvalues --   -0.35805  -0.34232  -0.31783  -0.29213  -0.28017
 Alpha  occ. eigenvalues --   -0.25341  -0.24676
 Alpha virt. eigenvalues --   -0.17385  -0.06789  -0.06293  -0.05221  -0.05022
 Alpha virt. eigenvalues --   -0.03915  -0.02894  -0.01977  -0.00690  -0.00444
 Alpha virt. eigenvalues --   -0.00434   0.00033   0.00629   0.00986   0.01288

 Mulliken charges:
               1
     1  C   -0.803597
     2  C    0.089852
     3  C    0.333997
     4  C   -0.106108
     5  C   -0.040691
     6  C   -0.029950
     7  C   -0.077555
     8  C    0.192461
     9  C   -0.441766
    10  N   -0.219419
    11  C    0.018352
    12  C   -0.286990
    13  C    0.603409
    14  C    0.784154
    15  C   -0.176883
    16  N   -0.480426
    17  C   -0.569063
    18  N   -0.448871
    19  C   -0.647606
    20  C   -0.573386
    21  C    0.583223
    22  C    1.560754
    23  C   -0.420199
    24  N   -0.395057
    25  C   -0.053446
    26  N   -0.449431
    27  H    0.162644
    28  H    0.157321
    29  H    0.154400
    30  H    0.132092
    31  H    0.117740
    32  H    0.134290
    33  H    0.136774
    34  H    0.137213
    35  H    0.130984
    36  H    0.298818
    37  H    0.151103
    38  H    0.171838
    39  H    0.169023
 Sum of Mulliken charges =  -0.00000

 Dipole moment (field-independent basis, Debye):
    X=             -3.6310    Y=             -1.9447    Z=              0.2423  Tot=              4.1261
 Quadrupole moment (field-independent basis, Debye-Ang):
   XX=           -161.6082   YY=           -203.5600   ZZ=           -140.9561
   XY=             -1.1825   XZ=              1.4345   YZ=              0.5641

 Normal termination of Gaussian 16 at Wed Aug  6 09:59:23 2025.
