 Gaussian 16, Revision C.02,
 Gaussian 16:  ES64L-G16RevC.02  7-Dec-2021

 ----------------------------------------------------------
 # td=(50-50,nstates=3) b3lyp/6-31+g(d,p) geom=connectivity
 ----------------------------------------------------------

 -------------------
 Title Card Required
 -------------------
 Symbolic Z-matrix:
 Charge =  0 Multiplicity = 1

                         Standard orientation:
 ---------------------------------------------------------------------
 Center     Atomic      Atomic             Coordinates (Angstroms)
 Number     Number       Type             X           Y           Z
 ---------------------------------------------------------------------
      1          6           0        7.429026    0.541440    1.192604
      2          6           0        6.584470   -0.092177    0.344049
      3          6           0        7.154970   -0.704336   -0.828018
      4          7           0        7.679960   -1.183981   -1.748675
      5          6           0        5.148427   -0.176913    0.594456
      6          6           0        4.076468   -0.690704   -0.079202
      7          6           0        4.077924   -1.386798   -1.423713
      8          6           0        3.653542   -2.867353   -1.312720
      9          6           0        3.252583   -0.627491   -2.484774
     10          6           0        2.912434   -0.421788    0.760685
     11          6           0        1.597741   -0.716972    0.552830
     12          6           0        0.517644   -0.384141    1.461626
     13          6           0       -0.744610   -0.688865    1.222007
     14          6           0       -1.996719   -1.055431    1.059929
     15          6           0       -3.109616   -0.329650    0.419655
     16          6           0       -4.391905   -0.900406    0.514437
     17          6           0       -5.500319   -0.274885   -0.047793
     18         35           0       -7.205862   -1.100910    0.100329
     19          6           0       -5.384113    0.939241   -0.724138
     20          6           0       -4.121954    1.519731   -0.830240
     21          6           0       -3.010853    0.891959   -0.273322
     22          7           0       -1.735718    1.542675   -0.449056
     23          6           0       -0.892218    1.381985   -1.490497
     24          6           0        0.220226    2.231421   -1.249393
     25          8           0        1.258788    2.498801   -1.810676
     26          8           0       -0.139414    2.846813    0.008322
     27          7           0       -1.340459    2.400914    0.460113
     28          6           0        3.423940    0.281575    1.969846
     29          8           0        2.866421    0.695621    2.958467
     30          8           0        4.789145    0.407584    1.809725
     31          1           0        7.056303    1.014389    2.092339
     32          1           0        8.491017    0.585154    0.982741
     33          1           0        5.107854   -1.389837   -1.783079
     34          1           0        3.752395   -3.353469   -2.288961
     35          1           0        4.286164   -3.407720   -0.601403
     36          1           0        2.613806   -2.980476   -0.989623
     37          1           0        3.410530   -1.087860   -3.465860
     38          1           0        3.547693    0.423349   -2.547256
     39          1           0        2.178975   -0.650137   -2.277485
     40          1           0        1.317701   -1.236579   -0.356947
     41          1           0        0.767311    0.153072    2.375661
     42          1           0       -2.278134   -2.026354    1.472599
     43          1           0       -4.512791   -1.841830    1.038712
     44          1           0       -6.252413    1.421706   -1.156512
     45          1           0       -3.992526    2.464914   -1.347242
     46          1           0       -1.097238    0.719060   -2.312477
 ---------------------------------------------------------------------

 SCF Done:  E(RB3LYP) =  -3884.74365643     A.U. after   18 cycles

 Excitation energies and oscillator strengths:

 Excited State   1:      Triplet-A      1.3675 eV  906.67 nm  f=0.0000  <S**2>=2.000
     118 ->119         0.70378
     118 <-119         0.17906
 This state for optimization and/or second-order correction.
 Total Energy, E(TD-HF/TD-DFT) =  -3884.69340311
 Copying the excited state density for this state as the 1-particle RhoCI density.

 Excited State   2:      Triplet-A      1.9442 eV  637.70 nm  f=0.0000  <S**2>=2.000
     117 ->119        -0.15516
     117 ->121         0.67610
     117 ->123        -0.12872
     118 ->121         0.13454
     117 <-121         0.16775

 Excited State   3:      Triplet-A      2.7022 eV  458.82 nm  f=0.0000  <S**2>=2.000
     111 ->122         0.10119
     111 ->123        -0.10030
     113 ->119         0.36856
     118 ->121        -0.11322
     118 ->122         0.37818
     118 ->123        -0.37602

 Excited State   4:      Singlet-A      2.8966 eV  428.03 nm  f=0.0600  <S**2>=0.000
     117 ->119         0.65614
     118 ->119         0.25347

 Excited State   5:      Singlet-A      3.0582 eV  405.41 nm  f=0.6793  <S**2>=0.000
     117 ->119        -0.25230
     118 ->119         0.64289

 Excited State   6:      Singlet-A      3.3488 eV  370.23 nm  f=0.0000  <S**2>=0.000
     118 ->120         0.68957

 The electronic state is 1-A.
 Alpha  occ. eigenvalues -- -482.96293 -61.92180 -56.43754 -56.43368 -56.43327
 Alpha  occ. eigenvalues --  -19.25974 -19.22733 -19.16755 -19.14445 -14.50191
 Alpha  occ. eigenvalues --  -14.46221 -14.35957 -10.34095 -10.32907 -10.29399
 Alpha  occ. eigenvalues --  -10.29251 -10.28798 -10.27219 -10.26946 -10.26054
 Alpha  occ. eigenvalues --  -10.25550 -10.25431 -10.25292 -10.25051 -10.25000
 Alpha  occ. eigenvalues --  -10.24926 -10.24763 -10.23924 -10.23847 -10.23491
 Alpha  occ. eigenvalues --  -10.23093 -10.21668 -10.19284 -10.18606  -8.62532
 Alpha  occ. eigenvalues --   -6.57732  -6.56442  -6.56401  -2.69277  -2.68911
 Alpha  occ. eigenvalues --   -2.68880  -2.67851  -2.67850  -1.20597  -1.13950
 Alpha  occ. eigenvalues --   -1.06289  -1.05626  -1.03033  -0.92893  -0.92734
 Alpha  occ. eigenvalues --   -0.87544  -0.86318  -0.85358  -0.84909  -0.84300
 Alpha  occ. eigenvalues --   -0.82476  -0.79732  -0.78723  -0.77047  -0.74251
 Alpha  occ. eigenvalues --   -0.70515  -0.69735  -0.69243  -0.67130  -0.66912
 Alpha  occ. eigenvalues --   -0.66764  -0.63980  -0.63486  -0.59347  -0.58915
 Alpha  occ. eigenvalues --   -0.57428  -0.56245  -0.55004  -0.53465  -0.52816
 Alpha  occ. eigenvalues --   -0.51833  -0.51556  -0.50191  -0.49428  -0.49108
 Alpha  occ. eigenvalues --   -0.48416  -0.48031  -0.47466  -0.46539  -0.45774
 Alpha  occ. eigenvalues --   -0.45268  -0.44718  -0.44374  -0.43553  -0.42825
 Alpha  occ. eigenvalues --   -0.42673  -0.42588  -0.41934  -0.40834  -0.40799
 Alpha  occ. eigenvalues --   -0.40664  -0.40179  -0.39969  -0.39231  -0.38109
 Alpha  occ. eigenvalues --   -0.37534  -0.37221  -0.36896  -0.36690  -0.36532
 Alpha  occ. eigenvalues --   -0.36300  -0.35246  -0.34099  -0.33433  -0.32230
 Alpha  occ. eigenvalues --   -0.30927  -0.29933  -0.29696  -0.29358  -0.28775
 Alpha  occ. eigenvalues --   -0.27456  -0.24505  -0.23304
 Alpha virt. eigenvalues --   -0.11602  -0.08858  -0.08089  -0.06953  -0.06803
 Alpha virt. eigenvalues --   -0.04055  -0.01928  -0.00943  -0.00741  -0.00101
 Alpha virt. eigenvalues --    0.00092   0.00265   0.00748   0.01027   0.01375

 Mulliken charges:
               1
     1  C   -0.352586
     2  C    0.808751
     3  C   -0.680902
     4  N   -0.474590
     5  C    0.060353
     6  C   -0.643982
     7  C    0.145529
     8  C   -0.554495
     9  C   -0.527937
    10  C    0.739504
    11  C    0.300223
    12  C   -0.104354
    13  C   -0.122278
    14  C   -0.032676
    15  C    1.743783
    16  C   -0.056100
    17  C   -0.196797
    18  Br   0.034696
    19  C   -0.154351
    20  C    0.257655
    21  C   -2.316882
    22  N    0.435999
    23  C    0.249327
    24  C   -0.032475
    25  O   -0.428258
    26  O    0.036917
    27  N   -0.227492
    28  C    0.406780
    29  O   -0.486782
    30  O   -0.344741
    31  H    0.184165
    32  H    0.168372
    33  H    0.137520
    34  H    0.151565
    35  H    0.152552
    36  H    0.135853
    37  H    0.147187
    38  H    0.175056
    39  H    0.130703
    40  H    0.119081
    41  H    0.207452
    42  H    0.161679
    43  H    0.153093
    44  H    0.160294
    45  H    0.156157
    46  H    0.177434
 Sum of Mulliken charges =  -0.00000

 Dipole moment (field-independent basis, Debye):
    X=             -6.5622    Y=             -3.3749    Z=             -0.6160  Tot=              7.4049
 Quadrupole moment (field-independent basis, Debye-Ang):
   XX=           -188.2653   YY=           -194.6445   ZZ=           -199.8763
   XY=             -0.4319   XZ=             18.9495   YZ=             -5.4930

 Normal termination of Gaussian 16 at Wed Aug  6 10:09:18 2025.
