 Gaussian 16, Revision C.02,
 Gaussian 16:  ES64L-G16RevC.02  7-Dec-2021

 ----------------------------------------------------------
 # td=(50-50,nstates=3) b3lyp/6-31+g(d,p) geom=connectivity
 ----------------------------------------------------------

 -------------------
 Title Card Required
 -------------------
 Symbolic Z-matrix:
 Charge =  0 Multiplicity = 1

                         Standard orientation:
 ---------------------------------------------------------------------
 Center     Atomic      Atomic             Coordinates (Angstroms)
 Number     Number       Type             X           Y           Z
 ---------------------------------------------------------------------
      1          6           0        4.431707   -2.431054    0.388383
      2          6           0        2.962791   -2.072632    0.079401
      3          6           0        2.588318   -2.706415   -1.283305
      4          6           0        2.089756   -2.578181    1.214699
      5          6           0        0.761176   -2.354922    1.317592
      6          8           0        0.076710   -3.032252    2.315514
      7          6           0       -0.044191   -1.522588    0.442529
      8          6           0        0.342851   -0.397847   -0.222546
      9          6           0       -0.638110    0.339913   -1.142001
     10          6           0       -2.068782   -0.158168   -1.170184
     11          6           0       -2.469722   -1.041293   -2.181945
     12          6           0       -3.776659   -1.527052   -2.254224
     13          6           0       -4.712515   -1.125560   -1.301541
     14          6           0       -4.333816   -0.241914   -0.288117
     15          6           0       -3.024366    0.245708   -0.212142
     16          6           0       -2.608329    1.231667    0.877273
     17          6           0       -3.602605    1.442355    1.932013
     18          7           0       -4.380180    1.617167    2.776563
     19          6           0        1.697306    0.175245   -0.123019
     20          6           0        1.842836    1.669437   -0.176217
     21          6           0        2.620833    2.286116   -1.168473
     22          6           0        2.784129    3.674605   -1.193450
     23          6           0        2.171243    4.471660   -0.224351
     24          6           0        1.396629    3.870555    0.773206
     25          6           0        1.234004    2.484370    0.794312
     26          6           0        2.825782   -0.556857    0.057474
     27          1           0        5.096988   -2.051355   -0.394677
     28          1           0        4.751012   -2.002957    1.345169
     29          1           0        4.558789   -3.517297    0.443331
     30          1           0        2.707749   -3.794366   -1.233043
     31          1           0        1.554925   -2.492793   -1.563708
     32          1           0        3.245743   -2.323024   -2.072618
     33          1           0        2.552265   -3.190326    1.985935
     34          1           0       -0.758238   -2.585191    2.503293
     35          1           0       -1.083793   -1.832830    0.344100
     36          1           0       -0.612745    1.407866   -0.901362
     37          1           0       -0.230492    0.277742   -2.160069
     38          1           0       -1.739376   -1.352388   -2.924771
     39          1           0       -4.058718   -2.211111   -3.049091
     40          1           0       -5.733642   -1.492416   -1.342875
     41          1           0       -5.065391    0.070520    0.450913
     42          1           0       -1.683134    0.894167    1.359134
     43          1           0       -2.381763    2.212128    0.437397
     44          1           0        3.093388    1.670679   -1.928767
     45          1           0        3.388789    4.131376   -1.971892
     46          1           0        2.297738    5.550155   -0.242336
     47          1           0        0.928026    4.480477    1.540543
     48          1           0        0.650748    2.022387    1.586722
     49          1           0        3.747112    0.003512    0.216408
 ---------------------------------------------------------------------

 SCF Done:  E(RB3LYP) =  -1058.39642850     A.U. after   17 cycles

 Excitation energies and oscillator strengths:

 Excited State   1:      Triplet-A      2.5630 eV  483.75 nm  f=0.0000  <S**2>=2.000
      90 -> 92         0.13694
      91 -> 92         0.63663
      91 -> 94         0.13310
 This state for optimization and/or second-order correction.
 Total Energy, E(TD-HF/TD-DFT) =  -1058.30224023
 Copying the excited state density for this state as the 1-particle RhoCI density.

 Excited State   2:      Triplet-A      3.2240 eV  384.57 nm  f=0.0000  <S**2>=2.000
      86 -> 92        -0.14798
      89 -> 92         0.10959
      90 -> 92         0.58715
      90 -> 93        -0.11027
      91 -> 92        -0.13157
      91 -> 94        -0.10976

 Excited State   3:      Triplet-A      3.6755 eV  337.33 nm  f=0.0000  <S**2>=2.000
      86 -> 92        -0.13309
      86 -> 93         0.14180
      86 -> 94         0.20751
      87 -> 95         0.27696
      88 -> 96        -0.30200
      89 -> 93        -0.24481
      89 -> 94         0.21166
      90 -> 93         0.27189
      90 -> 94         0.11996

 Excited State   4:      Singlet-A      3.9211 eV  316.20 nm  f=0.0557  <S**2>=0.000
      91 -> 92         0.68753

 Excited State   5:      Singlet-A      4.4039 eV  281.53 nm  f=0.0162  <S**2>=0.000
      90 -> 92         0.60110
      91 -> 92         0.10079
      91 -> 93         0.22288
      91 -> 94         0.21324

 Excited State   6:      Singlet-A      4.5654 eV  271.58 nm  f=0.0109  <S**2>=0.000
      90 -> 92        -0.19009
      91 -> 93         0.66535
      91 -> 94        -0.10478

 The electronic state is 1-A.
 Alpha  occ. eigenvalues --  -19.18510 -14.35074 -10.25440 -10.25323 -10.24452
 Alpha  occ. eigenvalues --  -10.22938 -10.22701 -10.22091 -10.21815 -10.21650
 Alpha  occ. eigenvalues --  -10.21436 -10.21255 -10.20989 -10.20966 -10.20925
 Alpha  occ. eigenvalues --  -10.20890 -10.20842 -10.20779 -10.20750 -10.20703
 Alpha  occ. eigenvalues --  -10.20689 -10.20614 -10.20590 -10.18906 -10.18450
 Alpha  occ. eigenvalues --  -10.18055  -1.05948  -0.92039  -0.88781  -0.87825
 Alpha  occ. eigenvalues --   -0.85705  -0.82460  -0.81359  -0.79371  -0.78018
 Alpha  occ. eigenvalues --   -0.76046  -0.74798  -0.73902  -0.72421  -0.70061
 Alpha  occ. eigenvalues --   -0.69173  -0.64745  -0.63012  -0.62569  -0.61763
 Alpha  occ. eigenvalues --   -0.60334  -0.59546  -0.55538  -0.54346  -0.53446
 Alpha  occ. eigenvalues --   -0.53370  -0.51901  -0.50607  -0.48559  -0.48178
 Alpha  occ. eigenvalues --   -0.47693  -0.46762  -0.46275  -0.45567  -0.45084
 Alpha  occ. eigenvalues --   -0.44983  -0.44426  -0.43858  -0.43457  -0.42904
 Alpha  occ. eigenvalues --   -0.42667  -0.41849  -0.40700  -0.39534  -0.38987
 Alpha  occ. eigenvalues --   -0.38524  -0.37644  -0.37521  -0.37412  -0.37161
 Alpha  occ. eigenvalues --   -0.36442  -0.36332  -0.35928  -0.35736  -0.35062
 Alpha  occ. eigenvalues --   -0.34160  -0.34007  -0.33751  -0.33079  -0.30851
 Alpha  occ. eigenvalues --   -0.27069  -0.26980  -0.26838  -0.26354  -0.24400
 Alpha  occ. eigenvalues --   -0.22332
 Alpha virt. eigenvalues --   -0.05687  -0.03478  -0.03146  -0.02915  -0.02557
 Alpha virt. eigenvalues --   -0.01458  -0.00312  -0.00064   0.00325   0.00623
 Alpha virt. eigenvalues --    0.01260   0.01439   0.01640   0.01840   0.02347

 Mulliken charges:
               1
     1  C   -0.431108
     2  C    0.263995
     3  C   -0.505238
     4  C   -0.145023
     5  C    0.111867
     6  O   -0.484994
     7  C   -0.699834
     8  C    0.805967
     9  C   -0.620531
    10  C    0.843866
    11  C   -0.590304
    12  C    0.058536
    13  C   -0.336251
    14  C    0.094171
    15  C   -0.089745
    16  C   -0.219197
    17  C   -0.191893
    18  N   -0.496493
    19  C   -0.066154
    20  C   -0.532470
    21  C   -0.002575
    22  C   -0.035455
    23  C   -0.004751
    24  C   -0.187177
    25  C    0.072760
    26  C   -0.132966
    27  H    0.149329
    28  H    0.159386
    29  H    0.153547
    30  H    0.147600
    31  H    0.152847
    32  H    0.140258
    33  H    0.132627
    34  H    0.351197
    35  H    0.143017
    36  H    0.156886
    37  H    0.155519
    38  H    0.117723
    39  H    0.128964
    40  H    0.132202
    41  H    0.144608
    42  H    0.202589
    43  H    0.206136
    44  H    0.120131
    45  H    0.128056
    46  H    0.127303
    47  H    0.127028
    48  H    0.112003
    49  H    0.132042
 Sum of Mulliken charges =  -0.00000

 Dipole moment (field-independent basis, Debye):
    X=              2.2990    Y=              0.5766    Z=             -3.8837  Tot=              4.5498
 Quadrupole moment (field-independent basis, Debye-Ang):
   XX=           -162.9126   YY=           -155.7887   ZZ=           -163.9785
   XY=             10.6599   XZ=             10.1097   YZ=              0.6463

 Normal termination of Gaussian 16 at Wed Aug  6 10:13:31 2025.
