 Gaussian 16, Revision C.02,
 Gaussian 16:  ES64L-G16RevC.02  7-Dec-2021

 ----------------------------------------------------------
 # td=(50-50,nstates=3) b3lyp/6-31+g(d,p) geom=connectivity
 ----------------------------------------------------------

 -------------------
 Title Card Required
 -------------------
 Symbolic Z-matrix:
 Charge =  0 Multiplicity = 1

                         Standard orientation:
 ---------------------------------------------------------------------
 Center     Atomic      Atomic             Coordinates (Angstroms)
 Number     Number       Type             X           Y           Z
 ---------------------------------------------------------------------
      1          6           0       -0.199718   -2.410617   -0.475130
      2          6           0        0.050281   -1.118311   -0.185743
      3          6           0       -0.911191   -0.017134   -0.027504
      4          6           0       -2.372298   -0.078471    0.001838
      5          6           0       -3.157041    0.945662   -0.566305
      6          6           0       -4.548134    0.856485   -0.550800
      7          6           0       -5.183585   -0.237809    0.043206
      8          6           0       -4.415778   -1.247358    0.630322
      9          6           0       -3.023870   -1.170739    0.610534
     10          7           0       -0.224027    1.135739    0.087776
     11          8           0       -0.668274    2.322902    0.210156
     12          6           0        1.186346    0.873525    0.076810
     13          6           0        2.205491    1.802914    0.196931
     14          6           0        3.509647    1.303872    0.166888
     15          6           0        3.748100   -0.078808    0.017802
     16          6           0        5.098588   -0.563045   -0.008145
     17          7           0        6.192485   -0.960333   -0.030068
     18          6           0        2.683000   -0.996529   -0.106049
     19          6           0        1.387767   -0.499662   -0.071751
     20          1           0       -1.205712   -2.786807   -0.614002
     21          1           0        0.614495   -3.116195   -0.603292
     22          1           0       -2.670916    1.806997   -1.006626
     23          1           0       -5.138167    1.650457   -0.998953
     24          1           0       -6.267822   -0.297965    0.058792
     25          1           0       -4.900037   -2.090462    1.114235
     26          1           0       -2.440274   -1.942373    1.100777
     27          1           0        1.984353    2.857934    0.307607
     28          1           0        4.353895    1.978431    0.258128
     29          1           0        2.891541   -2.054939   -0.219300
 ---------------------------------------------------------------------

 SCF Done:  E(RB3LYP) =  -800.411842993     A.U. after   16 cycles

 Excitation energies and oscillator strengths:

 Excited State   1:      Triplet-A      1.1233 eV 1103.75 nm  f=0.0000  <S**2>=2.000
      62 -> 65        -0.16043
      64 -> 65         0.69816
      64 -> 67         0.15610
      64 <- 65         0.22502
 This state for optimization and/or second-order correction.
 Total Energy, E(TD-HF/TD-DFT) =  -800.370562411
 Copying the excited state density for this state as the 1-particle RhoCI density.

 Excited State   2:      Triplet-A      2.6313 eV  471.18 nm  f=0.0000  <S**2>=2.000
      59 -> 66        -0.10653
      60 -> 65        -0.12240
      62 -> 65         0.56004
      62 -> 66         0.11019
      63 -> 65        -0.20236
      64 -> 65         0.13325
      64 -> 66        -0.20994

 Excited State   3:      Singlet-A      2.8024 eV  442.42 nm  f=0.1309  <S**2>=0.000
      62 -> 65         0.14422
      64 -> 65         0.67372

 Excited State   4:      Triplet-A      2.9723 eV  417.13 nm  f=0.0000  <S**2>=2.000
      61 -> 65         0.49456
      62 -> 65         0.18231
      63 -> 65         0.44400

 Excited State   5:      Singlet-A      3.2651 eV  379.73 nm  f=0.0020  <S**2>=0.000
      61 -> 65         0.46296
      62 -> 65         0.20631
      63 -> 65         0.47608

 Excited State   6:      Singlet-A      3.6573 eV  339.00 nm  f=0.1664  <S**2>=0.000
      64 -> 66         0.67734

 The electronic state is 1-A.
 Alpha  occ. eigenvalues --  -19.15804 -14.49956 -14.35589 -10.26620 -10.26615
 Alpha  occ. eigenvalues --  -10.26392 -10.25202 -10.24743 -10.24670 -10.24422
 Alpha  occ. eigenvalues --  -10.24268 -10.23632 -10.23411 -10.23070 -10.21677
 Alpha  occ. eigenvalues --  -10.21334 -10.21267 -10.21064 -10.20995  -1.13331
 Alpha  occ. eigenvalues --   -0.95350  -0.92462  -0.89249  -0.87437  -0.82776
 Alpha  occ. eigenvalues --   -0.80897  -0.78868  -0.76598  -0.76508  -0.70195
 Alpha  occ. eigenvalues --   -0.67821  -0.64904  -0.62576  -0.61664  -0.59570
 Alpha  occ. eigenvalues --   -0.57001  -0.54564  -0.53300  -0.50901  -0.50250
 Alpha  occ. eigenvalues --   -0.48906  -0.48536  -0.48119  -0.46858  -0.45832
 Alpha  occ. eigenvalues --   -0.44728  -0.43851  -0.43602  -0.42220  -0.41912
 Alpha  occ. eigenvalues --   -0.39200  -0.38789  -0.37708  -0.37668  -0.36926
 Alpha  occ. eigenvalues --   -0.36290  -0.35056  -0.34863  -0.29537  -0.29071
 Alpha  occ. eigenvalues --   -0.28052  -0.27249  -0.26930  -0.22808
 Alpha virt. eigenvalues --   -0.11363  -0.07136  -0.04941  -0.02873  -0.02183
 Alpha virt. eigenvalues --   -0.01078   0.00060   0.00862   0.01316   0.01877
 Alpha virt. eigenvalues --    0.01958   0.02516   0.03097   0.03643   0.04021

 Mulliken charges:
               1
     1  C   -0.468340
     2  C    0.825439
     3  C   -0.166070
     4  C    0.292730
     5  C   -0.049793
     6  C   -0.204777
     7  C   -0.143867
     8  C   -0.224538
     9  C   -0.417213
    10  N   -0.223203
    11  O   -0.049086
    12  C   -0.534527
    13  C   -0.567820
    14  C   -0.161530
    15  C    0.120066
    16  C    0.081602
    17  N   -0.527447
    18  C    0.117953
    19  C    0.838216
    20  H    0.154978
    21  H    0.145978
    22  H    0.162472
    23  H    0.132479
    24  H    0.129866
    25  H    0.129898
    26  H    0.124549
    27  H    0.173705
    28  H    0.157478
    29  H    0.150801
 Sum of Mulliken charges =  -0.00000

 Dipole moment (field-independent basis, Debye):
    X=             -4.0720    Y=             -1.9673    Z=             -0.4334  Tot=              4.5430
 Quadrupole moment (field-independent basis, Debye-Ang):
   XX=           -131.0869   YY=           -105.5449   ZZ=           -112.5132
   XY=             13.7708   XZ=              1.2670   YZ=             -2.4901

 Normal termination of Gaussian 16 at Wed Aug  6 10:01:29 2025.
