 Gaussian 16, Revision C.02,
 Gaussian 16:  ES64L-G16RevC.02  7-Dec-2021

 ----------------------------------------------------------
 # td=(50-50,nstates=3) b3lyp/6-31+g(d,p) geom=connectivity
 ----------------------------------------------------------

 -------------------
 Title Card Required
 -------------------
 Symbolic Z-matrix:
 Charge =  0 Multiplicity = 1

                         Standard orientation:
 ---------------------------------------------------------------------
 Center     Atomic      Atomic             Coordinates (Angstroms)
 Number     Number       Type             X           Y           Z
 ---------------------------------------------------------------------
      1          6           0        6.277983    2.240568   -0.747105
      2          7           0        5.468696    1.596690    0.281537
      3          6           0        4.756137    2.461492    1.209060
      4          7           0        4.920491    0.434486   -0.125139
      5          6           0        3.899229   -0.078003    0.465401
      6          6           0        3.383316   -1.412893   -0.044048
      7          6           0        3.255301   -2.381380    1.053241
      8          7           0        3.137325   -3.131282    1.933443
      9          6           0        2.033339   -1.215132   -0.804270
     10          8           0        2.032148   -1.233482   -2.023058
     11          6           0        0.839276   -0.960915    0.027611
     12          6           0       -0.355659   -0.700410   -0.506821
     13          6           0       -1.481677   -0.456955   -1.016192
     14          6           0       -2.662952   -0.203553   -1.589466
     15          6           0       -3.863511    0.042270   -0.886708
     16          6           0       -4.919238    0.256619   -0.317686
     17          6           0       -6.183556    0.509775    0.390550
     18          6           0       -6.003866    1.733089    1.324154
     19          6           0       -7.304683    0.794501   -0.637372
     20          6           0       -6.548114   -0.738633    1.232920
     21          1           0        6.800593    1.463469   -1.305750
     22          1           0        5.667580    2.830201   -1.448950
     23          1           0        7.011059    2.899796   -0.273920
     24          1           0        4.615398    1.959433    2.172000
     25          1           0        5.354146    3.358114    1.379372
     26          1           0        3.767714    2.759266    0.819939
     27          1           0        3.376160    0.374155    1.308675
     28          1           0        4.093688   -1.795560   -0.781866
     29          1           0        0.945049   -1.007614    1.109415
     30          1           0       -2.710282   -0.185508   -2.679916
     31          1           0       -6.939490    1.926285    1.860465
     32          1           0       -5.214458    1.552795    2.059809
     33          1           0       -5.742984    2.628801    0.752458
     34          1           0       -8.248463    0.982649   -0.113862
     35          1           0       -7.447384   -0.057792   -1.308591
     36          1           0       -7.066733    1.673161   -1.244617
     37          1           0       -5.767352   -0.958951    1.966828
     38          1           0       -7.486576   -0.558383    1.768815
     39          1           0       -6.678396   -1.618365    0.595665
 ---------------------------------------------------------------------

 SCF Done:  E(RB3LYP) =  -860.470996646     A.U. after   16 cycles

 Excitation energies and oscillator strengths:

 Excited State   1:      Triplet-A      1.4967 eV  828.39 nm  f=0.0000  <S**2>=2.000
      66 -> 73         0.10727
      71 -> 73         0.69902
      72 -> 73        -0.13688
      71 <- 73         0.17969
 This state for optimization and/or second-order correction.
 Total Energy, E(TD-HF/TD-DFT) =  -860.415994226
 Copying the excited state density for this state as the 1-particle RhoCI density.

 Excited State   2:      Triplet-A      2.2426 eV  552.86 nm  f=0.0000  <S**2>=2.000
      70 -> 73        -0.25385
      71 -> 73         0.13241
      72 -> 73         0.62794
      72 -> 74        -0.11661

 Excited State   3:      Singlet-A      2.4355 eV  509.08 nm  f=0.0405  <S**2>=0.000
      70 -> 73        -0.16498
      72 -> 73         0.68206

 Excited State   4:      Triplet-A      2.8601 eV  433.50 nm  f=0.0000  <S**2>=2.000
      68 -> 73        -0.10726
      70 -> 73         0.62441
      72 -> 73         0.24835

 Excited State   5:      Singlet-A      3.1128 eV  398.30 nm  f=0.0305  <S**2>=0.000
      68 -> 73        -0.10607
      70 -> 73         0.66346
      72 -> 73         0.17572

 Excited State   6:      Singlet-A      3.5298 eV  351.25 nm  f=0.0654  <S**2>=0.000
      67 -> 73        -0.36156
      68 -> 73         0.27946
      69 -> 73         0.49927
      71 -> 73        -0.17145

 The electronic state is 1-A.
 Alpha  occ. eigenvalues --  -19.15848 -14.39963 -14.38711 -14.34662 -10.30080
 Alpha  occ. eigenvalues --  -10.26005 -10.25003 -10.24434 -10.23969 -10.23892
 Alpha  occ. eigenvalues --  -10.23892 -10.23516 -10.23181 -10.22941 -10.22631
 Alpha  occ. eigenvalues --  -10.21800 -10.21363 -10.19846 -10.19787 -10.19766
 Alpha  occ. eigenvalues --   -1.05719  -1.03165  -0.91542  -0.87140  -0.85450
 Alpha  occ. eigenvalues --   -0.84097  -0.81258  -0.79186  -0.75014  -0.74438
 Alpha  occ. eigenvalues --   -0.70668  -0.70633  -0.70345  -0.68096  -0.61960
 Alpha  occ. eigenvalues --   -0.59874  -0.58052  -0.55597  -0.54735  -0.52524
 Alpha  occ. eigenvalues --   -0.51020  -0.50348  -0.49716  -0.49181  -0.48793
 Alpha  occ. eigenvalues --   -0.45946  -0.45922  -0.45885  -0.43979  -0.43308
 Alpha  occ. eigenvalues --   -0.42143  -0.41960  -0.41219  -0.41117  -0.40425
 Alpha  occ. eigenvalues --   -0.39827  -0.38537  -0.38155  -0.37868  -0.36940
 Alpha  occ. eigenvalues --   -0.36712  -0.36071  -0.35911  -0.34567  -0.33654
 Alpha  occ. eigenvalues --   -0.31655  -0.29735  -0.29151  -0.28516  -0.26938
 Alpha  occ. eigenvalues --   -0.24486  -0.22823
 Alpha virt. eigenvalues --   -0.11773  -0.02710  -0.01541  -0.01085  -0.00475
 Alpha virt. eigenvalues --   -0.00188   0.01073   0.01141   0.01908   0.02115
 Alpha virt. eigenvalues --    0.02358   0.02388   0.02927   0.03390   0.03555

 Mulliken charges:
               1
     1  C   -0.323289
     2  N    0.088803
     3  C   -0.351524
     4  N   -0.095501
     5  C   -0.374783
     6  C    0.289007
     7  C    0.011049
     8  N   -0.445108
     9  C    0.055513
    10  O   -0.401225
    11  C   -0.164503
    12  C    0.109196
    13  C   -0.039476
    14  C   -0.561451
    15  C    0.369737
    16  C    0.122877
    17  C    0.164105
    18  C   -0.494084
    19  C   -0.488201
    20  C   -0.491382
    21  H    0.170883
    22  H    0.143750
    23  H    0.146097
    24  H    0.153265
    25  H    0.153322
    26  H    0.154270
    27  H    0.123548
    28  H    0.212974
    29  H    0.166734
    30  H    0.191903
    31  H    0.151151
    32  H    0.158766
    33  H    0.157478
    34  H    0.150563
    35  H    0.158412
    36  H    0.157643
    37  H    0.159647
    38  H    0.151066
    39  H    0.158764
 Sum of Mulliken charges =  -0.00000

 Dipole moment (field-independent basis, Debye):
    X=             -3.5365    Y=              5.9343    Z=              0.7713  Tot=              6.9511
 Quadrupole moment (field-independent basis, Debye-Ang):
   XX=            -88.9095   YY=           -126.3273   ZZ=           -128.0996
   XY=             19.7849   XZ=             -1.9317   YZ=              8.0958

 Normal termination of Gaussian 16 at Wed Aug  6 10:07:11 2025.
