 Gaussian 16, Revision C.02,
 Gaussian 16:  ES64L-G16RevC.02  7-Dec-2021

 ----------------------------------------------------------
 # td=(50-50,nstates=3) b3lyp/6-31+g(d,p) geom=connectivity
 ----------------------------------------------------------

 -------------------
 Title Card Required
 -------------------
 Symbolic Z-matrix:
 Charge =  0 Multiplicity = 1

                         Standard orientation:
 ---------------------------------------------------------------------
 Center     Atomic      Atomic             Coordinates (Angstroms)
 Number     Number       Type             X           Y           Z
 ---------------------------------------------------------------------
      1          6           0       -5.144806   -0.875184   -0.000377
      2          7           0       -4.223229    0.248050   -0.000144
      3          6           0       -4.737951    1.606447   -0.000163
      4          6           0       -2.858183    0.025605    0.000012
      5          6           0       -1.932192    1.093009    0.000251
      6          6           0       -0.556070    0.857583    0.000409
      7          6           0       -0.026672   -0.436324    0.000334
      8          6           0        1.456390   -0.778516    0.000549
      9          6           0        2.431627    0.357582    0.000283
     10          6           0        3.780413    0.210323   -0.000044
     11          6           0        4.654496    1.350282   -0.000235
     12          7           0        5.355966    2.278146   -0.000387
     13          6           0        4.396897   -1.087511   -0.000199
     14          7           0        4.868637   -2.150844   -0.000314
     15          6           0       -0.947169   -1.495384    0.000095
     16          6           0       -2.321507   -1.285836   -0.000063
     17          1           0       -6.168221   -0.498720   -0.000406
     18          1           0       -5.019078   -1.508705   -0.889849
     19          1           0       -5.019220   -1.508937    0.888947
     20          1           0       -5.828020    1.577092   -0.000356
     21          1           0       -4.415893    2.166541    0.889258
     22          1           0       -4.415580    2.166633   -0.889413
     23          1           0       -2.276878    2.119575    0.000319
     24          1           0        0.090995    1.729417    0.000602
     25          1           0        1.683030   -1.415859    0.868768
     26          1           0        1.683154   -1.416421   -0.867215
     27          1           0        2.062735    1.378021    0.000380
     28          1           0       -0.581638   -2.520364    0.000024
     29          1           0       -2.976646   -2.148203   -0.000256
 ---------------------------------------------------------------------

 SCF Done:  E(RB3LYP) =  -667.439644553     A.U. after   15 cycles

 Excitation energies and oscillator strengths:

 Excited State   1:      Triplet-A      2.2955 eV  540.12 nm  f=0.0000  <S**2>=2.000
      54 -> 57         0.11344
      56 -> 57         0.69415
 This state for optimization and/or second-order correction.
 Total Energy, E(TD-HF/TD-DFT) =  -667.355287412
 Copying the excited state density for this state as the 1-particle RhoCI density.

 Excited State   2:      Singlet-A      2.3658 eV  524.08 nm  f=0.0031  <S**2>=0.000
      56 -> 57         0.70589

 Excited State   3:      Triplet-A      2.8889 eV  429.18 nm  f=0.0000  <S**2>=2.000
      53 -> 57         0.42619
      54 -> 57         0.53574
      55 -> 57         0.10808
      56 -> 57        -0.10700

 Excited State   4:      Triplet-A      3.4235 eV  362.15 nm  f=0.0000  <S**2>=2.000
      55 -> 57         0.14263
      55 -> 58        -0.24837
      56 -> 58        -0.38385
      56 -> 61         0.49340

 Excited State   5:      Singlet-A      3.9443 eV  314.34 nm  f=0.0261  <S**2>=0.000
      55 -> 57         0.70499

 Excited State   6:      Singlet-A      4.5233 eV  274.10 nm  f=0.0098  <S**2>=0.000
      56 -> 59         0.52160
      56 -> 60        -0.47596

 The electronic state is 1-A.
 Alpha  occ. eigenvalues --  -14.37311 -14.37077 -14.36606 -10.29206 -10.27173
 Alpha  occ. eigenvalues --  -10.26232 -10.25942 -10.24524 -10.23490 -10.23473
 Alpha  occ. eigenvalues --  -10.23400 -10.21138 -10.20822 -10.20542 -10.20077
 Alpha  occ. eigenvalues --  -10.20000  -0.96527  -0.94297  -0.92848  -0.87871
 Alpha  occ. eigenvalues --   -0.85894  -0.79690  -0.76551  -0.74325  -0.73882
 Alpha  occ. eigenvalues --   -0.68401  -0.65619  -0.62100  -0.61247  -0.58428
 Alpha  occ. eigenvalues --   -0.54361  -0.52637  -0.49534  -0.48010  -0.47914
 Alpha  occ. eigenvalues --   -0.47306  -0.46683  -0.44456  -0.43459  -0.42441
 Alpha  occ. eigenvalues --   -0.42050  -0.42016  -0.40961  -0.39838  -0.39354
 Alpha  occ. eigenvalues --   -0.38634  -0.37657  -0.37633  -0.36776  -0.36596
 Alpha  occ. eigenvalues --   -0.35570  -0.35038  -0.30475  -0.29162  -0.26619
 Alpha  occ. eigenvalues --   -0.20622
 Alpha virt. eigenvalues --   -0.09969  -0.02320  -0.02293  -0.01261  -0.00947
 Alpha virt. eigenvalues --   -0.00063   0.00291   0.01237   0.01482   0.01796
 Alpha virt. eigenvalues --    0.02801   0.02960   0.03142   0.03338   0.03884

 Mulliken charges:
               1
     1  C   -0.292064
     2  N   -0.108651
     3  C   -0.297601
     4  C    0.252253
     5  C   -0.262049
     6  C   -0.860682
     7  C    0.323705
     8  C   -0.659848
     9  C    0.580451
    10  C    0.893777
    11  C   -0.142192
    12  N   -0.484334
    13  C   -0.566387
    14  N   -0.482797
    15  C    0.209041
    16  C    0.026809
    17  H    0.133980
    18  H    0.150220
    19  H    0.150219
    20  H    0.133976
    21  H    0.150129
    22  H    0.150130
    23  H    0.112339
    24  H    0.098509
    25  H    0.201570
    26  H    0.201545
    27  H    0.152489
    28  H    0.120569
    29  H    0.114895
 Sum of Mulliken charges =  -0.00000

 Dipole moment (field-independent basis, Debye):
    X=             -8.4387    Y=              0.1517    Z=              0.0010  Tot=              8.4401
 Quadrupole moment (field-independent basis, Debye-Ang):
   XX=           -114.1347   YY=           -102.4910   ZZ=            -98.5277
   XY=             -3.0759   XZ=              0.0073   YZ=              0.0009

 Normal termination of Gaussian 16 at Wed Aug  6 10:05:45 2025.
