 Gaussian 16, Revision C.02,
 Gaussian 16:  ES64L-G16RevC.02  7-Dec-2021

 ----------------------------------------------------------
 # td=(50-50,nstates=3) b3lyp/6-31+g(d,p) geom=connectivity
 ----------------------------------------------------------

 -------------------
 Title Card Required
 -------------------
 Symbolic Z-matrix:
 Charge =  0 Multiplicity = 1

                         Standard orientation:
 ---------------------------------------------------------------------
 Center     Atomic      Atomic             Coordinates (Angstroms)
 Number     Number       Type             X           Y           Z
 ---------------------------------------------------------------------
      1          6           0        2.293966    3.616873   -0.028940
      2          6           0        1.083292    2.690951    0.173962
      3          6           0        0.564834    2.812904    1.616572
      4          8           0        0.052199    3.051177   -0.767639
      5          6           0        1.518893    1.249136   -0.181964
      6          6           0        0.513795    0.113237   -0.101987
      7          6           0       -0.831278    0.347206   -0.159136
      8          6           0       -1.825779   -0.689879   -0.036926
      9          6           0       -3.182612   -0.390156   -0.098648
     10          6           0       -4.182175   -1.401765    0.030920
     11          7           0       -4.991601   -2.232761    0.138359
     12          6           0       -3.659271    0.942739   -0.286756
     13          7           0       -4.053408    2.029310   -0.431746
     14          6           0       -1.370106   -2.042988    0.170100
     15          6           0       -0.044458   -2.311463    0.199199
     16          6           0        0.967826   -1.281554    0.017251
     17          6           0        2.291985   -1.714074   -0.062717
     18          6           0        3.447785   -0.921990   -0.342386
     19          7           0        4.441532   -0.362438   -0.581672
     20          6           0        2.619682   -3.100974    0.093437
     21          7           0        2.906497   -4.222337    0.223797
     22          1           0        2.649997    3.563034   -1.061788
     23          1           0        2.014497    4.655112    0.184698
     24          1           0        3.119780    3.351237    0.638961
     25          1           0       -0.310825    2.184707    1.793562
     26          1           0        0.281815    3.850500    1.826803
     27          1           0        1.342657    2.531115    2.334330
     28          1           0       -0.192789    3.976935   -0.632067
     29          1           0        1.935775    1.274271   -1.197060
     30          1           0        2.358226    1.021975    0.478951
     31          1           0       -1.168041    1.365714   -0.308529
     32          1           0       -2.094459   -2.841234    0.291712
     33          1           0        0.286345   -3.334407    0.338511
 ---------------------------------------------------------------------

 SCF Done:  E(RB3LYP) =  -911.095544532     A.U. after   17 cycles

 Excitation energies and oscillator strengths:

 Excited State   1:      Triplet-A      0.6539 eV 1896.01 nm  f=0.0000  <S**2>=2.000
      72 -> 73         0.78608
      72 <- 73         0.36206
 This state for optimization and/or second-order correction.
 Total Energy, E(TD-HF/TD-DFT) =  -911.071513367
 Copying the excited state density for this state as the 1-particle RhoCI density.

 Excited State   2:      Triplet-A      2.3966 eV  517.33 nm  f=0.0000  <S**2>=2.000
      70 -> 73         0.67726
      71 -> 73         0.13251
      72 -> 75         0.12069

 Excited State   3:      Singlet-A      2.8223 eV  439.31 nm  f=0.4318  <S**2>=0.000
      70 -> 73         0.32598
      71 -> 73         0.35529
      72 -> 73         0.52505
      72 <- 73        -0.11877

 Excited State   4:      Triplet-A      2.8828 eV  430.08 nm  f=0.0000  <S**2>=2.000
      70 -> 73        -0.13323
      71 -> 73         0.69271

 Excited State   5:      Singlet-A      2.9038 eV  426.98 nm  f=0.1797  <S**2>=0.000
      70 -> 73        -0.18513
      71 -> 73         0.61040
      72 -> 73        -0.30965

 Excited State   6:      Singlet-A      3.0583 eV  405.40 nm  f=0.3719  <S**2>=0.000
      70 -> 73         0.59738
      72 -> 73        -0.38437

 The electronic state is 1-A.
 Alpha  occ. eigenvalues --  -19.18469 -14.38706 -14.38587 -14.38521 -14.38446
 Alpha  occ. eigenvalues --  -10.31737 -10.31345 -10.29770 -10.28997 -10.28558
 Alpha  occ. eigenvalues --  -10.28032 -10.27785 -10.27652 -10.27581 -10.27318
 Alpha  occ. eigenvalues --  -10.26230 -10.26076 -10.24941 -10.23283 -10.20790
 Alpha  occ. eigenvalues --  -10.20553  -1.05575  -0.96536  -0.96040  -0.94651
 Alpha  occ. eigenvalues --   -0.94405  -0.93224  -0.89015  -0.85129  -0.83778
 Alpha  occ. eigenvalues --   -0.80992  -0.76908  -0.73765  -0.72144  -0.68518
 Alpha  occ. eigenvalues --   -0.67331  -0.63702  -0.61347  -0.59587  -0.58677
 Alpha  occ. eigenvalues --   -0.56709  -0.52544  -0.50946  -0.49755  -0.49259
 Alpha  occ. eigenvalues --   -0.48270  -0.46974  -0.46095  -0.45259  -0.44615
 Alpha  occ. eigenvalues --   -0.43345  -0.42830  -0.42044  -0.41156  -0.40849
 Alpha  occ. eigenvalues --   -0.40795  -0.40423  -0.40271  -0.39915  -0.39267
 Alpha  occ. eigenvalues --   -0.38725  -0.38304  -0.38113  -0.38024  -0.37805
 Alpha  occ. eigenvalues --   -0.36970  -0.36720  -0.35026  -0.34428  -0.31686
 Alpha  occ. eigenvalues --   -0.30636  -0.27026
 Alpha virt. eigenvalues --   -0.17842  -0.06914  -0.06407  -0.04591  -0.03774
 Alpha virt. eigenvalues --   -0.02466  -0.01049  -0.00223   0.00021   0.00508
 Alpha virt. eigenvalues --    0.00736   0.01134   0.01268   0.02078   0.02155

 Mulliken charges:
               1
     1  C   -0.377886
     2  C    0.397659
     3  C   -0.501204
     4  O   -0.499166
     5  C   -0.755731
     6  C    0.204642
     7  C   -0.157985
     8  C    1.147869
     9  C    0.813496
    10  C   -0.171548
    11  N   -0.461503
    12  C   -0.530698
    13  N   -0.457818
    14  C   -0.458583
    15  C   -0.422655
    16  C    0.850459
    17  C    0.711084
    18  C   -0.329305
    19  N   -0.469107
    20  C   -0.250550
    21  N   -0.451824
    22  H    0.165463
    23  H    0.143931
    24  H    0.159980
    25  H    0.155576
    26  H    0.145798
    27  H    0.153316
    28  H    0.355383
    29  H    0.195119
    30  H    0.160608
    31  H    0.194017
    32  H    0.171832
    33  H    0.169331
 Sum of Mulliken charges =  -0.00000

 Dipole moment (field-independent basis, Debye):
    X=              1.3369    Y=              3.3447    Z=              1.6058  Tot=              3.9437
 Quadrupole moment (field-independent basis, Debye-Ang):
   XX=           -170.9524   YY=           -131.0774   ZZ=           -123.6169
   XY=             12.0152   XZ=              1.7200   YZ=              4.9420

 Normal termination of Gaussian 16 at Tue Aug  5 22:14:10 2025.
