 Gaussian 16, Revision C.02,
 Gaussian 16:  ES64L-G16RevC.02  7-Dec-2021

 ----------------------------------------------------------
 # td=(50-50,nstates=3) b3lyp/6-31+g(d,p) geom=connectivity
 ----------------------------------------------------------

 -------------------
 Title Card Required
 -------------------
 Symbolic Z-matrix:
 Charge =  0 Multiplicity = 1

                         Standard orientation:
 ---------------------------------------------------------------------
 Center     Atomic      Atomic             Coordinates (Angstroms)
 Number     Number       Type             X           Y           Z
 ---------------------------------------------------------------------
      1          6           0       -4.770033   -0.668072    0.000053
      2          6           0       -3.626285    0.362085    0.000287
      3          6           0       -3.736383    1.249777   -1.261410
      4          6           0       -3.736122    1.248945    1.262585
      5          6           0       -2.268008   -0.326229   -0.000065
      6          7           0       -1.129305    0.452025    0.000036
      7          6           0       -0.031716   -0.257502   -0.000229
      8          6           0        1.318731    0.328378   -0.000214
      9          6           0        1.460652    1.728896   -0.000518
     10          6           0        2.725156    2.314630   -0.000494
     11          6           0        3.874187    1.524002   -0.000159
     12          6           0        3.742751    0.124913    0.000165
     13          6           0        4.914250   -0.705719    0.000535
     14          7           0        5.865023   -1.376845    0.000839
     15          6           0        2.471426   -0.468367    0.000139
     16         16           0       -0.321259   -1.995561   -0.000631
     17          6           0       -2.023167   -1.676608   -0.000389
     18          1           0       -4.737972   -1.308316    0.888706
     19          1           0       -5.734913   -0.150617    0.000284
     20          1           0       -4.738096   -1.307763   -0.889001
     21          1           0       -2.929769    1.987421   -1.290564
     22          1           0       -4.693962    1.782813   -1.264634
     23          1           0       -3.679618    0.645993   -2.173826
     24          1           0       -3.679270    0.644547    2.174589
     25          1           0       -2.929437    1.986500    1.292110
     26          1           0       -4.693650    1.782069    1.266312
     27          1           0        0.565664    2.340441   -0.000772
     28          1           0        2.816816    3.396288   -0.000738
     29          1           0        4.861430    1.973039   -0.000133
     30          1           0        2.399620   -1.551112    0.000447
     31          1           0       -2.729364   -2.493358   -0.000529
 ---------------------------------------------------------------------

 SCF Done:  E(RB3LYP) =  -1049.65654656     A.U. after   16 cycles

 Excitation energies and oscillator strengths:

 Excited State   1:      Triplet-A      2.6693 eV  464.48 nm  f=0.0000  <S**2>=2.000
      60 -> 68         0.10138
      63 -> 66         0.15321
      64 -> 65         0.64764
      64 -> 66         0.13006
 This state for optimization and/or second-order correction.
 Total Energy, E(TD-HF/TD-DFT) =  -1049.55845130
 Copying the excited state density for this state as the 1-particle RhoCI density.

 Excited State   2:      Triplet-A      3.5037 eV  353.87 nm  f=0.0000  <S**2>=2.000
      60 -> 65         0.18971
      63 -> 65         0.31338
      63 -> 66        -0.33670
      64 -> 66         0.43887
      64 -> 68         0.18846

 Excited State   3:      Triplet-A      3.8171 eV  324.81 nm  f=0.0000  <S**2>=2.000
      60 -> 66        -0.10883
      61 -> 66         0.25626
      63 -> 66         0.36050
      64 -> 65        -0.21623
      64 -> 66         0.46158

 Excited State   4:      Singlet-A      4.0300 eV  307.65 nm  f=0.3427  <S**2>=0.000
      63 -> 65         0.10680
      64 -> 65         0.68705

 Excited State   5:      Singlet-A      4.2062 eV  294.76 nm  f=0.0506  <S**2>=0.000
      63 -> 65        -0.24068
      64 -> 65         0.11662
      64 -> 66         0.64270

 Excited State   6:      Singlet-A      4.6561 eV  266.28 nm  f=0.0002  <S**2>=0.000
      62 -> 65         0.68763
      62 -> 66         0.13020

 The electronic state is 1-A.
 Alpha  occ. eigenvalues --  -88.93430 -14.35378 -14.35147 -10.27692 -10.25603
 Alpha  occ. eigenvalues --  -10.24294 -10.24178 -10.23968 -10.23558 -10.23396
 Alpha  occ. eigenvalues --  -10.23263 -10.22590 -10.22506 -10.21998 -10.18898
 Alpha  occ. eigenvalues --  -10.18354 -10.18354  -7.99399  -5.95798  -5.95445
 Alpha  occ. eigenvalues --   -5.95130  -0.98376  -0.92157  -0.89387  -0.83849
 Alpha  occ. eigenvalues --   -0.81594  -0.80555  -0.79170  -0.73638  -0.69909
 Alpha  occ. eigenvalues --   -0.69314  -0.66908  -0.65581  -0.61275  -0.60191
 Alpha  occ. eigenvalues --   -0.55514  -0.54209  -0.51675  -0.50001  -0.49314
 Alpha  occ. eigenvalues --   -0.46798  -0.45972  -0.45474  -0.43807  -0.43616
 Alpha  occ. eigenvalues --   -0.42917  -0.41414  -0.40901  -0.39899  -0.39261
 Alpha  occ. eigenvalues --   -0.38962  -0.38634  -0.37435  -0.37069  -0.36122
 Alpha  occ. eigenvalues --   -0.34691  -0.34387  -0.34348  -0.33797  -0.30989
 Alpha  occ. eigenvalues --   -0.29358  -0.29193  -0.27982  -0.24229
 Alpha virt. eigenvalues --   -0.08118  -0.06369  -0.01201  -0.00902  -0.00434
 Alpha virt. eigenvalues --    0.00413   0.01063   0.01636   0.01961   0.02089
 Alpha virt. eigenvalues --    0.02476   0.02540   0.03005   0.03939   0.04194

 Mulliken charges:
               1
     1  C   -0.600208
     2  C    0.554959
     3  C   -0.488093
     4  C   -0.488123
     5  C   -0.038286
     6  N    0.008051
     7  C   -0.348093
     8  C    0.513006
     9  C   -0.201819
    10  C   -0.068512
    11  C   -0.355975
    12  C    0.576922
    13  C   -0.274043
    14  N   -0.524202
    15  C   -0.367540
    16  S    0.201148
    17  C   -0.226736
    18  H    0.151553
    19  H    0.151618
    20  H    0.151556
    21  H    0.164400
    22  H    0.144458
    23  H    0.148473
    24  H    0.148474
    25  H    0.164406
    26  H    0.144460
    27  H    0.159073
    28  H    0.139951
    29  H    0.151970
    30  H    0.139984
    31  H    0.167169
 Sum of Mulliken charges =  -0.00000

 Dipole moment (field-independent basis, Debye):
    X=             -4.4873    Y=              1.9155    Z=             -0.0013  Tot=              4.8790
 Quadrupole moment (field-independent basis, Debye-Ang):
   XX=           -129.6447   YY=           -103.3994   ZZ=           -112.2282
   XY=             18.0654   XZ=             -0.0064   YZ=              0.0002

 Normal termination of Gaussian 16 at Wed Aug  6 10:09:49 2025.
