 Gaussian 16, Revision C.02,
 Gaussian 16:  ES64L-G16RevC.02  7-Dec-2021

 ----------------------------------------------------------
 # td=(50-50,nstates=3) b3lyp/6-31+g(d,p) geom=connectivity
 ----------------------------------------------------------

 -------------------
 Title Card Required
 -------------------
 Symbolic Z-matrix:
 Charge =  0 Multiplicity = 1

                         Standard orientation:
 ---------------------------------------------------------------------
 Center     Atomic      Atomic             Coordinates (Angstroms)
 Number     Number       Type             X           Y           Z
 ---------------------------------------------------------------------
      1          6           0        3.395190   -0.346373   -0.710155
      2          6           0        2.214284   -0.521380    0.258049
      3          6           0        2.606635   -1.436883    1.428832
      4          6           0        1.688900    0.826570    0.797053
      5          6           0        1.149355    1.823821   -0.243117
      6          6           0       -0.088312    1.341371   -1.037887
      7          6           0       -1.292591    1.144605   -0.177781
      8          6           0       -2.080601    0.041747   -0.133468
      9          6           0       -3.227949   -0.016322    0.731117
     10          7           0       -4.153466   -0.054104    1.434451
     11          6           0       -1.823006   -1.119525   -0.941754
     12          7           0       -1.611148   -2.056781   -1.597117
     13          1           0        3.760965   -1.319434   -1.055160
     14          1           0        3.124872    0.232886   -1.599425
     15          1           0        4.230821    0.167364   -0.217407
     16          1           0        1.401750   -1.021320   -0.288045
     17          1           0        1.762821   -1.602596    2.108058
     18          1           0        2.943055   -2.415229    1.069219
     19          1           0        3.424895   -0.996737    2.012966
     20          1           0        0.904310    0.624484    1.539937
     21          1           0        2.502429    1.319412    1.348099
     22          1           0        0.893779    2.762170    0.266720
     23          1           0        1.931626    2.078124   -0.966543
     24          1           0       -0.340816    2.118612   -1.775088
     25          1           0        0.133594    0.432334   -1.604434
     26          1           0       -1.573230    1.970343    0.474439
 ---------------------------------------------------------------------

 SCF Done:  E(RB3LYP) =  -498.989838561     A.U. after   15 cycles

 Excitation energies and oscillator strengths:

 Excited State   1:      Triplet-A      2.9671 eV  417.86 nm  f=0.0000  <S**2>=2.000
      44 -> 45         0.69809
      44 <- 45         0.12193
 This state for optimization and/or second-order correction.
 Total Energy, E(TD-HF/TD-DFT) =  -498.880798279
 Copying the excited state density for this state as the 1-particle RhoCI density.

 Excited State   2:      Triplet-A      5.2034 eV  238.28 nm  f=0.0000  <S**2>=2.000
      30 -> 51        -0.11896
      38 -> 45         0.54812
      40 -> 46         0.18401
      44 -> 51        -0.28585

 Excited State   3:      Singlet-A      5.3337 eV  232.46 nm  f=0.3526  <S**2>=0.000
      42 -> 45        -0.10973
      44 -> 45         0.67986

 Excited State   4:      Triplet-A      5.4835 eV  226.11 nm  f=0.0000  <S**2>=2.000
      40 -> 45         0.45145
      42 -> 45         0.16594
      43 -> 45         0.48693

 Excited State   5:      Singlet-A      5.5359 eV  223.96 nm  f=0.0030  <S**2>=0.000
      43 -> 45         0.69603

 Excited State   6:      Singlet-A      5.7497 eV  215.64 nm  f=0.0080  <S**2>=0.000
      39 -> 45         0.13355
      40 -> 45         0.22684
      41 -> 45        -0.42835
      42 -> 45         0.48649

 The electronic state is 1-A.
 Alpha  occ. eigenvalues --  -14.37246 -14.36957 -10.29641 -10.27361 -10.26510
 Alpha  occ. eigenvalues --  -10.26255 -10.23290 -10.21770 -10.20467 -10.20203
 Alpha  occ. eigenvalues --  -10.18728 -10.18466  -0.94556  -0.93136  -0.87700
 Alpha  occ. eigenvalues --   -0.83308  -0.79637  -0.73186  -0.69505  -0.67359
 Alpha  occ. eigenvalues --   -0.63585  -0.60431  -0.56633  -0.53548  -0.49641
 Alpha  occ. eigenvalues --   -0.46809  -0.45898  -0.44731  -0.43479  -0.42652
 Alpha  occ. eigenvalues --   -0.40743  -0.39802  -0.39465  -0.39136  -0.38765
 Alpha  occ. eigenvalues --   -0.37589  -0.37242  -0.36895  -0.36709  -0.35812
 Alpha  occ. eigenvalues --   -0.33776  -0.33697  -0.32974  -0.29922
 Alpha virt. eigenvalues --   -0.09977  -0.02670  -0.01355   0.00194   0.00214
 Alpha virt. eigenvalues --    0.00570   0.01337   0.02557   0.02991   0.03237
 Alpha virt. eigenvalues --    0.03345   0.04116   0.04259   0.05310   0.06002

 Mulliken charges:
               1
     1  C   -0.589829
     2  C    0.308296
     3  C   -0.610994
     4  C   -0.288621
     5  C   -0.415107
     6  C   -0.088354
     7  C    0.179764
     8  C    0.757187
     9  C   -0.043808
    10  N   -0.482798
    11  C   -0.312219
    12  N   -0.469429
    13  H    0.149499
    14  H    0.133697
    15  H    0.147743
    16  H    0.131828
    17  H    0.142091
    18  H    0.147968
    19  H    0.145403
    20  H    0.132664
    21  H    0.140759
    22  H    0.142375
    23  H    0.148740
    24  H    0.173291
    25  H    0.162330
    26  H    0.157526
 Sum of Mulliken charges =  -0.00000

 Dipole moment (field-independent basis, Debye):
    X=              3.9731    Y=              3.9763    Z=             -0.4809  Tot=              5.6416
 Quadrupole moment (field-independent basis, Debye-Ang):
   XX=            -91.5842   YY=            -76.3877   ZZ=            -80.3906
   XY=             -4.7310   XZ=              5.3094   YZ=             -5.0462

 Normal termination of Gaussian 16 at Tue Aug  5 22:11:21 2025.
