 Gaussian 16, Revision C.02,
 Gaussian 16:  ES64L-G16RevC.02  7-Dec-2021

 ----------------------------------------------------------
 # td=(50-50,nstates=3) b3lyp/6-31+g(d,p) geom=connectivity
 ----------------------------------------------------------

 -------------------
 Title Card Required
 -------------------
 Symbolic Z-matrix:
 Charge =  0 Multiplicity = 1

                         Standard orientation:
 ---------------------------------------------------------------------
 Center     Atomic      Atomic             Coordinates (Angstroms)
 Number     Number       Type             X           Y           Z
 ---------------------------------------------------------------------
      1          6           0        4.381363    1.762649    0.000478
      2          8           0        3.691210    0.511580    0.000348
      3          6           0        2.345480    0.492958    0.000172
      4          6           0        1.550273    1.598397    0.000137
      5          6           0        0.102775    1.538152   -0.000054
      6          6           0       -0.634421    2.709390   -0.000292
      7          6           0       -2.138699    2.869071   -0.000629
      8          6           0        0.081021    3.947413   -0.000193
      9          7           0        0.627459    4.978390   -0.000029
     10          6           0       -0.483187    0.189448    0.000019
     11          8           0       -1.831775    0.122833    0.000178
     12          6           0       -2.458756   -1.179646    0.000195
     13          6           0       -3.988694   -1.050783    0.000153
     14          6           0       -4.472369   -0.317483   -1.265291
     15          6           0       -4.542899   -2.491827    0.000301
     16          6           0       -4.472384   -0.317154    1.265403
     17          6           0        0.322777   -0.917233   -0.000025
     18          6           0        1.756586   -0.844434   -0.000006
     19          6           0        2.516321   -2.013140   -0.000163
     20          6           0        3.941465   -2.105347   -0.000212
     21          7           0        5.090147   -2.302265   -0.000213
     22          6           0        1.853903   -3.280731   -0.000250
     23          7           0        1.292217   -4.302242   -0.000305
     24          1           0        4.136781    2.341990   -0.896886
     25          1           0        4.136084    2.342115    0.897566
     26          1           0        5.440211    1.506610    0.000898
     27          1           0        2.003265    2.580517    0.000145
     28          1           0       -2.584533    2.398530    0.879424
     29          1           0       -2.401770    3.927958   -0.001540
     30          1           0       -2.584220    2.397135   -0.880102
     31          1           0       -2.125105   -1.725575   -0.891345
     32          1           0       -2.125148   -1.725503    0.891800
     33          1           0       -5.566753   -0.279649   -1.287613
     34          1           0       -4.101358    0.710403   -1.301248
     35          1           0       -4.137331   -0.830971   -2.174012
     36          1           0       -5.637555   -2.473336    0.000269
     37          1           0       -4.219533   -3.048674    0.887150
     38          1           0       -4.219488   -3.048864   -0.886413
     39          1           0       -4.137580   -0.830538    2.174270
     40          1           0       -4.101116    0.710649    1.301217
     41          1           0       -5.566761   -0.279051    1.287603
     42          1           0       -0.115671   -1.904422   -0.000017
 ---------------------------------------------------------------------

 SCF Done:  E(RB3LYP) =  -1012.02680961     A.U. after   16 cycles

 Excitation energies and oscillator strengths:

 Excited State   1:      Triplet-A      0.9406 eV 1318.18 nm  f=0.0000  <S**2>=2.000
      82 -> 83         0.74216
      82 <- 83         0.25423
 This state for optimization and/or second-order correction.
 Total Energy, E(TD-HF/TD-DFT) =  -1011.99224420
 Copying the excited state density for this state as the 1-particle RhoCI density.

 Excited State   2:      Triplet-A      2.0187 eV  614.18 nm  f=0.0000  <S**2>=2.000
      81 -> 83         0.69694

 Excited State   3:      Singlet-A      2.6737 eV  463.72 nm  f=0.0166  <S**2>=0.000
      81 -> 83         0.68684
      82 -> 83         0.14571

 Excited State   4:      Singlet-A      2.9901 eV  414.65 nm  f=0.8492  <S**2>=0.000
      81 -> 83        -0.14569
      82 -> 83         0.69899
      82 <- 83        -0.14826

 Excited State   5:      Triplet-A      3.3269 eV  372.67 nm  f=0.0000  <S**2>=2.000
      80 -> 83         0.59017
      82 -> 84         0.35887

 Excited State   6:      Singlet-A      4.3249 eV  286.68 nm  f=0.0073  <S**2>=0.000
      80 -> 83         0.56074
      82 -> 84        -0.42324

 The electronic state is 1-A.
 Alpha  occ. eigenvalues --  -19.23231 -19.22409 -14.36697 -14.36121 -14.34994
 Alpha  occ. eigenvalues --  -10.31004 -10.30109 -10.28201 -10.27702 -10.27484
 Alpha  occ. eigenvalues --  -10.27482 -10.26739 -10.26677 -10.25683 -10.25510
 Alpha  occ. eigenvalues --  -10.24741 -10.23354 -10.23209 -10.23184 -10.22331
 Alpha  occ. eigenvalues --  -10.20215 -10.19992 -10.19992  -1.11704  -1.11211
 Alpha  occ. eigenvalues --   -0.93712  -0.93485  -0.91512  -0.90672  -0.86920
 Alpha  occ. eigenvalues --   -0.85442  -0.82101  -0.79749  -0.76747  -0.75009
 Alpha  occ. eigenvalues --   -0.72183  -0.71212  -0.71170  -0.69360  -0.66696
 Alpha  occ. eigenvalues --   -0.63329  -0.60055  -0.58456  -0.57468  -0.56278
 Alpha  occ. eigenvalues --   -0.54504  -0.52473  -0.51903  -0.50355  -0.50328
 Alpha  occ. eigenvalues --   -0.48647  -0.47969  -0.47148  -0.46387  -0.45469
 Alpha  occ. eigenvalues --   -0.45092  -0.44242  -0.43931  -0.43066  -0.41722
 Alpha  occ. eigenvalues --   -0.41510  -0.40945  -0.40111  -0.39348  -0.39127
 Alpha  occ. eigenvalues --   -0.38815  -0.38666  -0.38416  -0.38289  -0.37936
 Alpha  occ. eigenvalues --   -0.37410  -0.35793  -0.35593  -0.35500  -0.35330
 Alpha  occ. eigenvalues --   -0.35322  -0.35129  -0.33733  -0.33248  -0.32439
 Alpha  occ. eigenvalues --   -0.26360  -0.23985
 Alpha virt. eigenvalues --   -0.14139  -0.04730  -0.02129  -0.01928  -0.01436
 Alpha virt. eigenvalues --   -0.00729  -0.00278   0.00566   0.00694   0.00878
 Alpha virt. eigenvalues --    0.01726   0.02009   0.02397   0.02739   0.02819

 Mulliken charges:
               1
     1  C   -0.127584
     2  O   -0.335428
     3  C   -0.347455
     4  C   -0.819429
     5  C    0.293535
     6  C    1.460496
     7  C   -0.509437
     8  C   -0.358252
     9  N   -0.494306
    10  C    0.272688
    11  O   -0.341159
    12  C   -0.052893
    13  C    0.184002
    14  C   -0.455992
    15  C   -0.502372
    16  C   -0.456033
    17  C   -0.283820
    18  C   -0.037870
    19  C    1.603676
    20  C   -0.119826
    21  N   -0.521336
    22  C   -0.522867
    23  N   -0.486179
    24  H    0.155905
    25  H    0.155885
    26  H    0.169600
    27  H    0.147391
    28  H    0.178097
    29  H    0.166224
    30  H    0.178081
    31  H    0.149950
    32  H    0.149964
    33  H    0.151811
    34  H    0.145190
    35  H    0.148660
    36  H    0.156937
    37  H    0.154607
    38  H    0.154609
    39  H    0.148660
    40  H    0.145208
    41  H    0.151809
    42  H    0.149250
 Sum of Mulliken charges =  -0.00000

 Dipole moment (field-independent basis, Debye):
    X=             -6.4575    Y=              2.8566    Z=              0.0003  Tot=              7.0612
 Quadrupole moment (field-independent basis, Debye-Ang):
   XX=           -140.1089   YY=           -178.7334   ZZ=           -137.4110
   XY=             19.9493   XZ=              0.0034   YZ=             -0.0030

 Normal termination of Gaussian 16 at Tue Aug  5 22:21:04 2025.
