 Gaussian 16, Revision C.02,
 Gaussian 16:  ES64L-G16RevC.02  7-Dec-2021

 ----------------------------------------------------------
 # td=(50-50,nstates=3) b3lyp/6-31+g(d,p) geom=connectivity
 ----------------------------------------------------------

 -------------------
 Title Card Required
 -------------------
 Symbolic Z-matrix:
 Charge =  0 Multiplicity = 1

                         Standard orientation:
 ---------------------------------------------------------------------
 Center     Atomic      Atomic             Coordinates (Angstroms)
 Number     Number       Type             X           Y           Z
 ---------------------------------------------------------------------
      1          6           0        5.311919   -0.273698   -1.297131
      2          8           0        4.544129    0.852464   -0.835274
      3          6           0        3.192434    0.664798   -0.723617
      4          6           0        2.344661    1.448654   -1.512846
      5          6           0        0.964230    1.333631   -1.380701
      6          6           0        0.429383    0.428974   -0.463591
      7          7           0       -0.984698    0.311822   -0.327712
      8          6           0       -1.874872    1.179228    0.284136
      9          6           0       -1.467757    2.383355    0.887634
     10          7           0       -1.171842    3.392303    1.395459
     11          6           0       -3.151748    0.602166    0.180050
     12          6           0       -4.454663    0.982430    0.589936
     13          6           0       -5.498438    0.129030    0.302700
     14          6           0       -5.298373   -1.105737   -0.388272
     15          6           0       -4.044725   -1.504712   -0.799910
     16          6           0       -2.978044   -0.633219   -0.503408
     17          7           0       -1.651867   -0.792171   -0.800605
     18          8           0       -1.067820   -1.739992   -1.405674
     19          6           0        1.260020   -0.367407    0.344036
     20          8           0        0.693343   -1.174101    1.283346
     21          6           0        0.902942   -2.598486    1.127082
     22          6           0        2.654495   -0.226175    0.225980
     23          8           0        3.487835   -0.963585    1.033960
     24          6           0        3.787705   -0.337504    2.297029
     25          1           0        6.347469    0.068240   -1.328363
     26          1           0        5.216695   -1.122976   -0.616091
     27          1           0        4.990440   -0.560812   -2.305365
     28          1           0        2.786224    2.142199   -2.219607
     29          1           0        0.297125    1.932316   -1.991419
     30          1           0       -4.616361    1.918402    1.114385
     31          1           0       -6.505107    0.398523    0.607344
     32          1           0       -6.156164   -1.739215   -0.590619
     33          1           0       -3.863818   -2.434604   -1.326447
     34          1           0        0.376027   -3.058767    1.963957
     35          1           0        0.465498   -2.927657    0.180628
     36          1           0        1.967641   -2.838266    1.174660
     37          1           0        4.450251   -1.025656    2.824628
     38          1           0        4.296195    0.619620    2.139180
     39          1           0        2.871820   -0.185289    2.877614
 ---------------------------------------------------------------------

 SCF Done:  E(RB3LYP) =  -1121.89653982     A.U. after   17 cycles

 Excitation energies and oscillator strengths:

 Excited State   1:      Triplet-A      1.4797 eV  837.92 nm  f=0.0000  <S**2>=2.000
      85 -> 86         0.71084
      85 <- 86         0.17000
 This state for optimization and/or second-order correction.
 Total Energy, E(TD-HF/TD-DFT) =  -1121.84216331
 Copying the excited state density for this state as the 1-particle RhoCI density.

 Excited State   2:      Singlet-A      3.1838 eV  389.42 nm  f=0.1229  <S**2>=0.000
      85 -> 86         0.69025
      85 -> 89        -0.10789

 Excited State   3:      Triplet-A      3.3499 eV  370.11 nm  f=0.0000  <S**2>=2.000
      80 -> 86        -0.32685
      81 -> 86         0.28218
      84 -> 86         0.11115
      85 -> 88        -0.22355
      85 -> 89         0.38219
      85 -> 90        -0.23160

 Excited State   4:      Triplet-A      3.5176 eV  352.47 nm  f=0.0000  <S**2>=2.000
      82 -> 86         0.10987
      83 -> 86         0.21866
      83 -> 87        -0.37734
      84 -> 86         0.29126
      84 -> 87        -0.14962
      84 -> 88        -0.32788
      84 -> 89        -0.11393

 Excited State   5:      Singlet-A      3.9204 eV  316.26 nm  f=0.0210  <S**2>=0.000
      84 -> 86         0.69930

 Excited State   6:      Singlet-A      3.9747 eV  311.94 nm  f=0.0036  <S**2>=0.000
      85 -> 87         0.69351
      85 -> 88         0.11272

 The electronic state is 1-A.
 Alpha  occ. eigenvalues --  -19.19138 -19.19089 -19.18961 -19.15737 -14.52075
 Alpha  occ. eigenvalues --  -14.46440 -14.35226 -10.27791 -10.27748 -10.27187
 Alpha  occ. eigenvalues --  -10.26664 -10.25889 -10.25422 -10.24794 -10.24665
 Alpha  occ. eigenvalues --  -10.24520 -10.23778 -10.23591 -10.22428 -10.22356
 Alpha  occ. eigenvalues --  -10.22290 -10.21957 -10.21896 -10.21219  -1.16589
 Alpha  occ. eigenvalues --   -1.08831  -1.07260  -1.05818  -1.02610  -0.91658
 Alpha  occ. eigenvalues --   -0.91243  -0.87389  -0.84008  -0.81566  -0.77779
 Alpha  occ. eigenvalues --   -0.77269  -0.76700  -0.72622  -0.71413  -0.69334
 Alpha  occ. eigenvalues --   -0.68127  -0.66019  -0.63720  -0.62489  -0.61870
 Alpha  occ. eigenvalues --   -0.57936  -0.56470  -0.54759  -0.54255  -0.53444
 Alpha  occ. eigenvalues --   -0.51537  -0.50783  -0.49808  -0.49251  -0.48985
 Alpha  occ. eigenvalues --   -0.47176  -0.47114  -0.46705  -0.46378  -0.45904
 Alpha  occ. eigenvalues --   -0.45536  -0.45069  -0.43959  -0.42929  -0.41419
 Alpha  occ. eigenvalues --   -0.40534  -0.39972  -0.39095  -0.38121  -0.38034
 Alpha  occ. eigenvalues --   -0.37336  -0.37153  -0.36662  -0.35202  -0.34856
 Alpha  occ. eigenvalues --   -0.33565  -0.31922  -0.30665  -0.29070  -0.28880
 Alpha  occ. eigenvalues --   -0.28649  -0.28079  -0.25734  -0.25543  -0.20916
 Alpha virt. eigenvalues --   -0.08600  -0.03712  -0.03103  -0.02438  -0.00805
 Alpha virt. eigenvalues --   -0.00296  -0.00061   0.00501   0.00961   0.01364
 Alpha virt. eigenvalues --    0.01865   0.02145   0.02441   0.02966   0.03767

 Mulliken charges:
               1
     1  C   -0.123298
     2  O   -0.329876
     3  C   -0.316494
     4  C    0.074737
     5  C    0.193635
     6  C   -0.903406
     7  N    0.293264
     8  C    1.465941
     9  C   -0.118451
    10  N   -0.554443
    11  C    1.291513
    12  C   -0.541349
    13  C   -0.212330
    14  C   -0.179467
    15  C   -0.518674
    16  C   -1.126669
    17  N   -0.073042
    18  O    0.001583
    19  C    0.147421
    20  O   -0.317466
    21  C   -0.115916
    22  C    0.202558
    23  O   -0.393203
    24  C   -0.114773
    25  H    0.148308
    26  H    0.169411
    27  H    0.141148
    28  H    0.145563
    29  H    0.140433
    30  H    0.150652
    31  H    0.133686
    32  H    0.134097
    33  H    0.157177
    34  H    0.142422
    35  H    0.178526
    36  H    0.163524
    37  H    0.147290
    38  H    0.155816
    39  H    0.160152
 Sum of Mulliken charges =  -0.00000

 Dipole moment (field-independent basis, Debye):
    X=              0.3000    Y=             -2.6801    Z=             -0.3423  Tot=              2.7184
 Quadrupole moment (field-independent basis, Debye-Ang):
   XX=           -108.2763   YY=           -151.1729   ZZ=           -139.1660
   XY=             -1.0399   XZ=              0.6750   YZ=            -10.9359

 Normal termination of Gaussian 16 at Sat Aug  9 21:41:07 2025.
