 Gaussian 16, Revision C.02,
 Gaussian 16:  ES64L-G16RevC.02  7-Dec-2021

 ----------------------------------------------------------
 # td=(50-50,nstates=3) b3lyp/6-31+g(d,p) geom=connectivity
 ----------------------------------------------------------

 -------------------
 Title Card Required
 -------------------
 Symbolic Z-matrix:
 Charge =  0 Multiplicity = 1

                         Standard orientation:
 ---------------------------------------------------------------------
 Center     Atomic      Atomic             Coordinates (Angstroms)
 Number     Number       Type             X           Y           Z
 ---------------------------------------------------------------------
      1          6           0        3.717739    0.604791   -0.986666
      2          6           0        2.972391   -0.212248   -0.220149
      3          6           0        3.609157   -1.053058    0.763614
      4          7           0        4.115483   -1.721395    1.569879
      5          6           0        1.502451   -0.315153   -0.319161
      6          6           0        0.517291    0.595480   -0.225839
      7          6           0        0.676921    2.082320    0.011965
      8          6           0       -0.171599    2.911164   -0.972117
      9          6           0        0.403692    2.494118    1.476653
     10          6           0       -0.792561   -0.142681   -0.447124
     11          6           0       -1.892573   -0.005317    0.634175
     12          6           0       -3.240218   -0.595738    0.209772
     13          6           0       -4.279725   -0.492632    1.325832
     14          8           0       -3.648890    0.156452   -0.949267
     15          6           0       -0.330067   -1.588757   -0.619191
     16          8           0       -0.975095   -2.589010   -0.801661
     17          8           0        1.045523   -1.624284   -0.528983
     18          1           0        3.257537    1.215220   -1.755593
     19          1           0        4.792861    0.668800   -0.859285
     20          1           0        1.728138    2.322307   -0.179398
     21          1           0        0.012704    3.980047   -0.821884
     22          1           0        0.071920    2.669692   -2.012393
     23          1           0       -1.243480    2.736176   -0.830744
     24          1           0        0.651491    3.552489    1.614134
     25          1           0        1.015344    1.910169    2.171309
     26          1           0       -0.645198    2.363424    1.756409
     27          1           0       -1.248243    0.169194   -1.397971
     28          1           0       -2.050260    1.057467    0.840276
     29          1           0       -1.562930   -0.474885    1.567671
     30          1           0       -3.100366   -1.646139   -0.071253
     31          1           0       -5.245837   -0.887065    0.991763
     32          1           0       -3.969539   -1.072458    2.202403
     33          1           0       -4.423872    0.550884    1.626477
     34          1           0       -4.378353   -0.304552   -1.382378
 ---------------------------------------------------------------------

 SCF Done:  E(RB3LYP) =  -786.053213795     A.U. after   16 cycles

 Excitation energies and oscillator strengths:

 Excited State   1:      Triplet-A      2.8409 eV  436.42 nm  f=0.0000  <S**2>=2.000
      60 -> 64         0.32128
      63 -> 64         0.58821
      63 -> 65         0.12557
 This state for optimization and/or second-order correction.
 Total Energy, E(TD-HF/TD-DFT) =  -785.948812419
 Copying the excited state density for this state as the 1-particle RhoCI density.

 Excited State   2:      Triplet-A      3.5982 eV  344.57 nm  f=0.0000  <S**2>=2.000
      60 -> 64         0.49251
      61 -> 64        -0.13459
      62 -> 64         0.12923
      63 -> 64        -0.18569
      63 -> 65        -0.34644
      63 -> 67        -0.12491

 Excited State   3:      Singlet-A      3.9464 eV  314.17 nm  f=0.0711  <S**2>=0.000
      63 -> 64         0.69460

 Excited State   4:      Triplet-A      4.3566 eV  284.59 nm  f=0.0000  <S**2>=2.000
      60 -> 64         0.26295
      63 -> 64        -0.32399
      63 -> 65         0.51205
      63 -> 67         0.11798

 Excited State   5:      Singlet-A      4.8582 eV  255.21 nm  f=0.0054  <S**2>=0.000
      61 -> 64        -0.17851
      62 -> 64         0.65156
      62 -> 65         0.13184
      63 -> 65         0.10090

 Excited State   6:      Singlet-A      5.1884 eV  238.96 nm  f=0.0637  <S**2>=0.000
      61 -> 64        -0.14888
      62 -> 64        -0.15157
      63 -> 65         0.65559

 The electronic state is 1-A.
 Alpha  occ. eigenvalues --  -19.22459 -19.16921 -19.16332 -14.35679 -10.33639
 Alpha  occ. eigenvalues --  -10.28040 -10.27292 -10.25235 -10.24791 -10.24372
 Alpha  occ. eigenvalues --  -10.23251 -10.22642 -10.22510 -10.21359 -10.19783
 Alpha  occ. eigenvalues --  -10.19680 -10.19157  -1.13350  -1.05254  -1.03585
 Alpha  occ. eigenvalues --   -0.92383  -0.86699  -0.84651  -0.81125  -0.77846
 Alpha  occ. eigenvalues --   -0.74636  -0.70712  -0.70434  -0.66731  -0.63699
 Alpha  occ. eigenvalues --   -0.61206  -0.59338  -0.57635  -0.55337  -0.53009
 Alpha  occ. eigenvalues --   -0.50510  -0.49326  -0.48311  -0.47358  -0.45743
 Alpha  occ. eigenvalues --   -0.45462  -0.44556  -0.43948  -0.43019  -0.42841
 Alpha  occ. eigenvalues --   -0.41770  -0.40618  -0.40123  -0.39409  -0.38658
 Alpha  occ. eigenvalues --   -0.38237  -0.37926  -0.37396  -0.37225  -0.36514
 Alpha  occ. eigenvalues --   -0.36124  -0.35433  -0.34839  -0.33770  -0.30661
 Alpha  occ. eigenvalues --   -0.29590  -0.28436  -0.25305
 Alpha virt. eigenvalues --   -0.08251  -0.03535  -0.01095  -0.00712   0.00155
 Alpha virt. eigenvalues --    0.00481   0.01359   0.01689   0.02249   0.02805
 Alpha virt. eigenvalues --    0.02969   0.03591   0.03904   0.04354   0.04921

 Mulliken charges:
               1
     1  C   -0.318578
     2  C   -0.028038
     3  C    0.051370
     4  N   -0.500531
     5  C    0.783868
     6  C   -0.514885
     7  C    0.277299
     8  C   -0.540433
     9  C   -0.584837
    10  C    0.117781
    11  C   -0.093125
    12  C   -0.100551
    13  C   -0.498641
    14  O   -0.547598
    15  C    0.349120
    16  O   -0.457584
    17  O   -0.247791
    18  H    0.156050
    19  H    0.167418
    20  H    0.124070
    21  H    0.148603
    22  H    0.147529
    23  H    0.166869
    24  H    0.149367
    25  H    0.155424
    26  H    0.143207
    27  H    0.216577
    28  H    0.149827
    29  H    0.151236
    30  H    0.164720
    31  H    0.142734
    32  H    0.152275
    33  H    0.156265
    34  H    0.360982
 Sum of Mulliken charges =  -0.00000

 Dipole moment (field-independent basis, Debye):
    X=             -2.2334    Y=              5.4336    Z=             -1.4228  Tot=              6.0446
 Quadrupole moment (field-independent basis, Debye-Ang):
   XX=           -100.1378   YY=           -114.9520   ZZ=           -104.5389
   XY=             15.9411   XZ=            -12.3661   YZ=              0.7985

 Normal termination of Gaussian 16 at Tue Aug  5 22:17:09 2025.
