 Gaussian 16, Revision C.02,
 Gaussian 16:  ES64L-G16RevC.02  7-Dec-2021

 ----------------------------------------------------------
 # td=(50-50,nstates=3) b3lyp/6-31+g(d,p) geom=connectivity
 ----------------------------------------------------------

 -------------------
 Title Card Required
 -------------------
 Symbolic Z-matrix:
 Charge =  0 Multiplicity = 1

                         Standard orientation:
 ---------------------------------------------------------------------
 Center     Atomic      Atomic             Coordinates (Angstroms)
 Number     Number       Type             X           Y           Z
 ---------------------------------------------------------------------
      1          6           0       -4.891618   -0.988854    1.755867
      2          6           0       -4.941817   -0.203064    0.662805
      3          6           0       -6.220107    0.128226    0.082506
      4          7           0       -7.253252    0.377806   -0.389373
      5          6           0       -3.751172    0.345224   -0.008613
      6          6           0       -2.593289   -0.220793   -0.400310
      7          6           0       -2.173969   -1.664150   -0.281938
      8          6           0       -1.767394   -2.260498   -1.645222
      9          6           0       -1.071218   -1.875514    0.769344
     10          8           0        0.111958   -1.188814    0.374221
     11          6           0        1.197488   -1.397100    1.274197
     12          6           0        2.399975   -0.652760    0.755984
     13          6           0        2.647824    0.674988    1.111648
     14          9           0        1.812498    1.306160    1.958413
     15          6           0        3.743595    1.383533    0.625499
     16          9           0        3.954632    2.654062    0.992526
     17          6           0        4.625819    0.757230   -0.253284
     18          9           0        5.682168    1.423701   -0.729093
     19          6           0        4.407376   -0.566077   -0.632702
     20          9           0        5.256773   -1.168860   -1.475532
     21          6           0        3.302803   -1.247433   -0.128381
     22          9           0        3.120133   -2.525241   -0.511229
     23          6           0       -1.789304    0.857714   -1.081636
     24          6           0       -2.696130    2.075365   -1.008701
     25          8           0       -2.524682    3.194742   -1.405406
     26          8           0       -3.858048    1.697473   -0.351208
     27          1           0       -3.946706   -1.211379    2.237903
     28          1           0       -5.794367   -1.404785    2.189077
     29          1           0       -3.038120   -2.229468    0.089590
     30          1           0       -1.553189   -3.329374   -1.541313
     31          1           0       -2.575157   -2.147009   -2.374406
     32          1           0       -0.869526   -1.778986   -2.040806
     33          1           0       -1.403220   -1.506100    1.752713
     34          1           0       -0.862548   -2.953803    0.862968
     35          1           0        0.936099   -1.029997    2.275579
     36          1           0        1.426882   -2.468455    1.346544
     37          1           0       -0.836834    1.066229   -0.582205
     38          1           0       -1.553371    0.636665   -2.129027
 ---------------------------------------------------------------------

 SCF Done:  E(RB3LYP) =  -1434.63350369     A.U. after   16 cycles

 Excitation energies and oscillator strengths:

 Excited State   1:      Triplet-A      2.7248 eV  455.02 nm  f=0.0000  <S**2>=2.000
      90 -> 96         0.27886
      95 -> 96         0.61552
      95 ->100         0.11755
 This state for optimization and/or second-order correction.
 Total Energy, E(TD-HF/TD-DFT) =  -1434.53336914
 Copying the excited state density for this state as the 1-particle RhoCI density.

 Excited State   2:      Triplet-A      3.6575 eV  338.99 nm  f=0.0000  <S**2>=2.000
      90 -> 96         0.52337
      91 -> 96         0.10458
      93 -> 96         0.16193
      95 -> 96        -0.17789
      95 ->100        -0.31497
      95 ->105        -0.10638

 Excited State   3:      Triplet-A      3.6974 eV  335.33 nm  f=0.0000  <S**2>=2.000
      92 -> 97        -0.51645
      94 -> 99        -0.47160

 Excited State   4:      Singlet-A      4.0283 eV  307.79 nm  f=0.0914  <S**2>=0.000
      90 -> 96        -0.10423
      95 -> 96         0.69136

 Excited State   5:      Singlet-A      4.8484 eV  255.72 nm  f=0.0006  <S**2>=0.000
      95 -> 97         0.70572

 Excited State   6:      Singlet-A      4.8897 eV  253.56 nm  f=0.0056  <S**2>=0.000
      93 -> 96         0.67035
      93 ->100         0.14256

 The electronic state is 1-A.
 Alpha  occ. eigenvalues --  -24.77692 -24.77305 -24.77252 -24.77245 -24.77238
 Alpha  occ. eigenvalues --  -19.22874 -19.19931 -19.16665 -14.36099 -10.34213
 Alpha  occ. eigenvalues --  -10.34147 -10.33633 -10.33625 -10.33491 -10.33480
 Alpha  occ. eigenvalues --  -10.28947 -10.28784 -10.27944 -10.27359 -10.26395
 Alpha  occ. eigenvalues --  -10.25202 -10.24963 -10.23967 -10.23612 -10.23253
 Alpha  occ. eigenvalues --  -10.20604  -1.29400  -1.28673  -1.28195  -1.27353
 Alpha  occ. eigenvalues --   -1.27062  -1.13671  -1.07912  -1.05724  -0.93397
 Alpha  occ. eigenvalues --   -0.92808  -0.87416  -0.85160  -0.83653  -0.81076
 Alpha  occ. eigenvalues --   -0.80266  -0.75294  -0.74645  -0.70819  -0.69356
 Alpha  occ. eigenvalues --   -0.68727  -0.67074  -0.64489  -0.62438  -0.62331
 Alpha  occ. eigenvalues --   -0.61627  -0.60203  -0.58385  -0.57614  -0.56943
 Alpha  occ. eigenvalues --   -0.56162  -0.55555  -0.55172  -0.53087  -0.52455
 Alpha  occ. eigenvalues --   -0.52032  -0.51383  -0.51195  -0.50538  -0.49813
 Alpha  occ. eigenvalues --   -0.49634  -0.49129  -0.47587  -0.47217  -0.47133
 Alpha  occ. eigenvalues --   -0.46813  -0.46025  -0.45037  -0.44452  -0.44379
 Alpha  occ. eigenvalues --   -0.42970  -0.42742  -0.42313  -0.41575  -0.41360
 Alpha  occ. eigenvalues --   -0.40151  -0.39246  -0.38681  -0.38392  -0.38163
 Alpha  occ. eigenvalues --   -0.37460  -0.37086  -0.36354  -0.35229  -0.31301
 Alpha  occ. eigenvalues --   -0.30439  -0.29851  -0.29592  -0.28795  -0.26015
 Alpha virt. eigenvalues --   -0.09018  -0.06521  -0.05209  -0.04715  -0.03568
 Alpha virt. eigenvalues --   -0.02299  -0.00711  -0.00537  -0.00153   0.00203
 Alpha virt. eigenvalues --    0.01262   0.01361   0.02119   0.02188   0.02672

 Mulliken charges:
               1
     1  C   -0.331893
     2  C    0.425244
     3  C    0.059687
     4  N   -0.495461
     5  C    0.223449
     6  C   -0.265497
     7  C    0.054488
     8  C   -0.665256
     9  C   -0.269200
    10  O   -0.257815
    11  C    0.037142
    12  C    1.122324
    13  C   -0.346750
    14  F   -0.330614
    15  C    0.412344
    16  F   -0.336136
    17  C    0.403896
    18  F   -0.328075
    19  C    0.426378
    20  F   -0.337824
    21  C   -0.383895
    22  F   -0.336933
    23  C   -0.068176
    24  C    0.444362
    25  O   -0.460120
    26  O   -0.273730
    27  H    0.152994
    28  H    0.169423
    29  H    0.137591
    30  H    0.147345
    31  H    0.157654
    32  H    0.171894
    33  H    0.116720
    34  H    0.125897
    35  H    0.139993
    36  H    0.140548
    37  H    0.218112
    38  H    0.199890
 Sum of Mulliken charges =  -0.00000

 Dipole moment (field-independent basis, Debye):
    X=              3.3492    Y=             -6.9347    Z=              3.7219  Tot=              8.5534
 Quadrupole moment (field-independent basis, Debye-Ang):
   XX=           -196.1578   YY=           -161.6108   ZZ=           -142.4049
   XY=             19.7237   XZ=             -9.0429   YZ=             -2.3433

 Normal termination of Gaussian 16 at Tue Aug  5 22:26:50 2025.
