 Gaussian 16, Revision C.02,
 Gaussian 16:  ES64L-G16RevC.02  7-Dec-2021

 ----------------------------------------------------------
 # td=(50-50,nstates=3) b3lyp/6-31+g(d,p) geom=connectivity
 ----------------------------------------------------------

 -------------------
 Title Card Required
 -------------------
 Symbolic Z-matrix:
 Charge =  0 Multiplicity = 1

                         Standard orientation:
 ---------------------------------------------------------------------
 Center     Atomic      Atomic             Coordinates (Angstroms)
 Number     Number       Type             X           Y           Z
 ---------------------------------------------------------------------
      1          6           0       -7.155847   -2.440214   -0.508728
      2          7           0       -6.523428   -1.189653   -0.105723
      3          6           0       -7.016706    0.027603   -0.733901
      4          7           0       -5.201540   -1.331180    0.148562
      5          6           0       -4.395570   -0.331657    0.106775
      6          6           0       -2.950757   -0.581798    0.468908
      7          6           0       -2.573210    0.155361    1.685731
      8          7           0       -2.324606    0.749258    2.652936
      9          6           0       -1.975572   -0.292793   -0.715747
     10          8           0       -2.425708   -0.018024   -1.809231
     11          6           0       -0.486705   -0.437236   -0.455882
     12          6           0        0.212835    0.887780   -0.162126
     13          6           0       -0.185359    2.079309   -0.780702
     14          6           0        0.445309    3.295917   -0.504657
     15          6           0       -0.022712    4.581938   -1.147373
     16          6           0        1.498884    3.292843    0.418531
     17          6           0        1.940790    2.124248    1.044133
     18          6           0        3.070838    2.161708    2.044807
     19          6           0        1.306354    0.901935    0.727024
     20          7           0        1.693612   -0.281583    1.394341
     21          6           0        2.658912   -1.019587    0.991661
     22          6           0        3.055761   -2.265218    1.786839
     23          7           0        4.007029   -2.965768    0.917339
     24          6           0        4.368928   -2.131657   -0.130785
     25          6           0        5.356236   -2.356171   -1.098999
     26          6           0        5.510380   -1.409358   -2.111163
     27          6           0        4.701752   -0.261480   -2.174883
     28          6           0        3.724772   -0.037071   -1.205270
     29          6           0        3.563555   -0.969171   -0.169849
     30          1           0       -8.231853   -2.379431   -0.322894
     31          1           0       -6.990710   -2.669476   -1.573772
     32          1           0       -6.733583   -3.246512    0.092416
     33          1           0       -8.092609   -0.072253   -0.887259
     34          1           0       -6.846647    0.890922   -0.082527
     35          1           0       -6.531112    0.218578   -1.705462
     36          1           0       -4.673395    0.686330   -0.162460
     37          1           0       -2.846106   -1.653758    0.691759
     38          1           0       -0.317650   -1.111987    0.388927
     39          1           0       -0.057358   -0.902987   -1.351914
     40          1           0       -1.004968    2.056286   -1.493368
     41          1           0       -0.569779    4.387607   -2.074958
     42          1           0       -0.694005    5.137693   -0.480191
     43          1           0        0.819030    5.241625   -1.383633
     44          1           0        1.993447    4.230990    0.663442
     45          1           0        3.356264    3.193532    2.267424
     46          1           0        2.779386    1.673495    2.981628
     47          1           0        3.962780    1.640959    1.675582
     48          1           0        3.517653   -1.959685    2.735468
     49          1           0        2.181504   -2.881220    2.017251
     50          1           0        4.716382   -3.545744    1.342906
     51          1           0        5.976539   -3.247223   -1.068146
     52          1           0        6.271094   -1.568000   -2.870573
     53          1           0        4.841162    0.454006   -2.978721
     54          1           0        3.105506    0.851543   -1.245345
 ---------------------------------------------------------------------

 SCF Done:  E(RB3LYP) =  -1240.49504621     A.U. after   17 cycles

 Excitation energies and oscillator strengths:

 Excited State   1:      Triplet-A      2.6975 eV  459.63 nm  f=0.0000  <S**2>=2.000
      99 ->104         0.16564
     102 ->104         0.53817
     103 ->104         0.39364
 This state for optimization and/or second-order correction.
 Total Energy, E(TD-HF/TD-DFT) =  -1240.39591503
 Copying the excited state density for this state as the 1-particle RhoCI density.

 Excited State   2:      Triplet-A      2.8885 eV  429.23 nm  f=0.0000  <S**2>=2.000
      97 ->104        -0.10954
     102 ->104        -0.39326
     103 ->104         0.55016

 Excited State   3:      Singlet-A      3.1284 eV  396.31 nm  f=0.0089  <S**2>=0.000
     102 ->104        -0.10180
     103 ->104         0.69171

 Excited State   4:      Triplet-A      3.3388 eV  371.34 nm  f=0.0000  <S**2>=2.000
     101 ->105         0.15059
     101 ->106        -0.59072
     101 ->107         0.16298
     101 ->108        -0.12401
     101 ->111         0.15459
     101 ->122        -0.10275

 Excited State   5:      Singlet-A      3.5953 eV  344.85 nm  f=0.1669  <S**2>=0.000
     102 ->104         0.68118
     103 ->104         0.10332

 Excited State   6:      Singlet-A      3.7702 eV  328.86 nm  f=0.0018  <S**2>=0.000
     102 ->105        -0.10252
     103 ->105         0.67384

 The electronic state is 1-A.
 Alpha  occ. eigenvalues --  -19.16876 -14.39052 -14.37942 -14.37003 -14.33955
 Alpha  occ. eigenvalues --  -14.33559 -10.30313 -10.25688 -10.25108 -10.24892
 Alpha  occ. eigenvalues --  -10.23884 -10.23288 -10.23060 -10.22656 -10.22091
 Alpha  occ. eigenvalues --  -10.22004 -10.21252 -10.20871 -10.20635 -10.20619
 Alpha  occ. eigenvalues --  -10.20541 -10.20324 -10.19848 -10.19531 -10.19238
 Alpha  occ. eigenvalues --  -10.18266 -10.18260 -10.18096 -10.17969  -1.06820
 Alpha  occ. eigenvalues --   -1.02235  -0.97697  -0.93488  -0.90850  -0.86483
 Alpha  occ. eigenvalues --   -0.85748  -0.85439  -0.80720  -0.78811  -0.78287
 Alpha  occ. eigenvalues --   -0.76747  -0.75307  -0.73706  -0.73273  -0.71746
 Alpha  occ. eigenvalues --   -0.68481  -0.67540  -0.67249  -0.64158  -0.61083
 Alpha  occ. eigenvalues --   -0.60161  -0.59008  -0.57186  -0.56312  -0.55915
 Alpha  occ. eigenvalues --   -0.54518  -0.53742  -0.51709  -0.51322  -0.49828
 Alpha  occ. eigenvalues --   -0.49394  -0.48339  -0.48070  -0.47901  -0.47001
 Alpha  occ. eigenvalues --   -0.46192  -0.45474  -0.45068  -0.44542  -0.43710
 Alpha  occ. eigenvalues --   -0.42973  -0.42283  -0.41977  -0.41671  -0.41259
 Alpha  occ. eigenvalues --   -0.41184  -0.41032  -0.40591  -0.40380  -0.39493
 Alpha  occ. eigenvalues --   -0.39163  -0.38852  -0.38065  -0.37761  -0.37410
 Alpha  occ. eigenvalues --   -0.36516  -0.36389  -0.35763  -0.35150  -0.34878
 Alpha  occ. eigenvalues --   -0.34114  -0.33249  -0.33012  -0.32698  -0.31110
 Alpha  occ. eigenvalues --   -0.28851  -0.28618  -0.26926  -0.26287  -0.23879
 Alpha  occ. eigenvalues --   -0.22416  -0.21768  -0.20991
 Alpha virt. eigenvalues --   -0.06345  -0.04543  -0.01780  -0.01308  -0.00944
 Alpha virt. eigenvalues --   -0.00630   0.00112   0.00382   0.00731   0.00883
 Alpha virt. eigenvalues --    0.01322   0.01773   0.02333   0.02574   0.02680

 Mulliken charges:
               1
     1  C   -0.318893
     2  N    0.075671
     3  C   -0.332741
     4  N   -0.067642
     5  C   -0.485308
     6  C    0.479761
     7  C   -0.132873
     8  N   -0.394658
     9  C   -0.203319
    10  O   -0.319618
    11  C   -0.116449
    12  C    0.589343
    13  C   -0.492984
    14  C    0.236082
    15  C   -0.423394
    16  C   -0.717465
    17  C    0.351629
    18  C   -0.462474
    19  C    0.213319
    20  N    0.014793
    21  C   -0.340678
    22  C   -0.744694
    23  N   -0.332745
    24  C   -0.460662
    25  C   -0.391882
    26  C   -0.069713
    27  C   -0.503734
    28  C   -0.284520
    29  C    1.694457
    30  H    0.144690
    31  H    0.141197
    32  H    0.165701
    33  H    0.149825
    34  H    0.152545
    35  H    0.160504
    36  H    0.128162
    37  H    0.216068
    38  H    0.164737
    39  H    0.181799
    40  H    0.127208
    41  H    0.150584
    42  H    0.165482
    43  H    0.150304
    44  H    0.110218
    45  H    0.137456
    46  H    0.170721
    47  H    0.158568
    48  H    0.164946
    49  H    0.168172
    50  H    0.301418
    51  H    0.121976
    52  H    0.128302
    53  H    0.129076
    54  H    0.151730
 Sum of Mulliken charges =  -0.00000

 Dipole moment (field-independent basis, Debye):
    X=              1.7656    Y=             -2.6005    Z=             -1.9138  Tot=              3.6800
 Quadrupole moment (field-independent basis, Debye-Ang):
   XX=           -127.8357   YY=           -158.9677   ZZ=           -185.2339
   XY=             -6.9817   XZ=             12.7711   YZ=             -8.6513

 Normal termination of Gaussian 16 at Tue Aug  5 22:47:08 2025.
