 Gaussian 16, Revision C.02,
 Gaussian 16:  ES64L-G16RevC.02  7-Dec-2021

 ----------------------------------------------------------
 # td=(50-50,nstates=3) b3lyp/6-31+g(d,p) geom=connectivity
 ----------------------------------------------------------

 -------------------
 Title Card Required
 -------------------
 Symbolic Z-matrix:
 Charge =  0 Multiplicity = 1

                         Standard orientation:
 ---------------------------------------------------------------------
 Center     Atomic      Atomic             Coordinates (Angstroms)
 Number     Number       Type             X           Y           Z
 ---------------------------------------------------------------------
      1          6           0       -5.810821   -1.024422    1.222592
      2          7           0       -5.067058   -0.318120    0.185501
      3          6           0       -5.321139   -0.703404   -1.195257
      4          7           0       -3.825577    0.037161    0.572865
      5          6           0       -2.898405    0.298733   -0.278276
      6          6           0       -1.561935    0.746520    0.265599
      7          6           0       -1.259767    2.138214   -0.106813
      8          7           0       -1.020623    3.230422   -0.424037
      9          6           0       -0.403665   -0.223507   -0.132639
     10          8           0       -0.646455   -1.337713   -0.526946
     11          6           0        1.006512    0.319172    0.054649
     12          8           0        1.928990   -0.730194   -0.082084
     13          6           0        3.269574   -0.439337    0.006648
     14          6           0        4.129016   -1.537563   -0.139411
     15          6           0        5.506270   -1.351497   -0.065853
     16          6           0        6.042435   -0.075519    0.152999
     17          6           0        5.180362    1.010113    0.296869
     18          6           0        3.791161    0.840667    0.225985
     19          1           0       -6.883100   -0.919683    1.035658
     20          1           0       -5.558228   -2.095626    1.261027
     21          1           0       -5.568912   -0.572088    2.185070
     22          1           0       -6.370964   -0.985169   -1.290124
     23          1           0       -5.134417    0.139558   -1.868684
     24          1           0       -4.691457   -1.552027   -1.509400
     25          1           0       -3.000735    0.229070   -1.360344
     26          1           0       -1.626657    0.706072    1.362982
     27          1           0        1.168112    1.107650   -0.696977
     28          1           0        1.077432    0.800274    1.043511
     29          1           0        3.695787   -2.517733   -0.309486
     30          1           0        6.165740   -2.206934   -0.180577
     31          1           0        7.117113    0.066022    0.209525
     32          1           0        5.580454    2.005650    0.466340
     33          1           0        3.144764    1.702957    0.340873
 ---------------------------------------------------------------------

 SCF Done:  E(RB3LYP) =  -819.078818071     A.U. after   15 cycles

 Excitation energies and oscillator strengths:

 Excited State   1:      Triplet-A      3.3010 eV  375.59 nm  f=0.0000  <S**2>=2.000
      65 -> 66        -0.14067
      65 -> 67         0.63078
      65 -> 69         0.15781
      65 -> 75         0.11672
 This state for optimization and/or second-order correction.
 Total Energy, E(TD-HF/TD-DFT) =  -818.957506772
 Copying the excited state density for this state as the 1-particle RhoCI density.

 Excited State   2:      Triplet-A      3.7098 eV  334.21 nm  f=0.0000  <S**2>=2.000
      63 -> 68        -0.41049
      64 -> 66         0.11222
      64 -> 68         0.23970
      64 -> 69         0.25753
      64 -> 70         0.41335

 Excited State   3:      Triplet-A      3.8181 eV  324.73 nm  f=0.0000  <S**2>=2.000
      61 -> 66        -0.19591
      62 -> 66         0.63629
      65 -> 66         0.16516

 Excited State   4:      Singlet-A      4.0921 eV  302.98 nm  f=0.0032  <S**2>=0.000
      65 -> 66         0.69868

 Excited State   5:      Singlet-A      4.2244 eV  293.49 nm  f=0.0022  <S**2>=0.000
      64 -> 66         0.69811

 Excited State   6:      Singlet-A      4.4527 eV  278.45 nm  f=0.0007  <S**2>=0.000
      61 -> 66        -0.18002
      62 -> 66         0.65965

 The electronic state is 1-A.
 Alpha  occ. eigenvalues --  -19.20136 -19.18395 -14.40091 -14.39078 -14.35949
 Alpha  occ. eigenvalues --  -10.31875 -10.27757 -10.26749 -10.26350 -10.25234
 Alpha  occ. eigenvalues --  -10.24176 -10.23498 -10.22853 -10.20410 -10.20271
 Alpha  occ. eigenvalues --  -10.20262 -10.19709 -10.19560  -1.09716  -1.07607
 Alpha  occ. eigenvalues --   -1.03394  -0.92865  -0.87634  -0.86266  -0.81875
 Alpha  occ. eigenvalues --   -0.77980  -0.75734  -0.74570  -0.72933  -0.68488
 Alpha  occ. eigenvalues --   -0.62829  -0.61416  -0.58467  -0.58179  -0.55863
 Alpha  occ. eigenvalues --   -0.55570  -0.53546  -0.51243  -0.50394  -0.49585
 Alpha  occ. eigenvalues --   -0.48900  -0.48423  -0.47049  -0.46032  -0.44710
 Alpha  occ. eigenvalues --   -0.43772  -0.42987  -0.42505  -0.41981  -0.40899
 Alpha  occ. eigenvalues --   -0.39992  -0.38676  -0.38457  -0.38193  -0.37217
 Alpha  occ. eigenvalues --   -0.36851  -0.35923  -0.34938  -0.34324  -0.33530
 Alpha  occ. eigenvalues --   -0.29881  -0.28376  -0.26325  -0.23573  -0.23360
 Alpha virt. eigenvalues --   -0.05543  -0.02859  -0.01945  -0.00783  -0.00709
 Alpha virt. eigenvalues --   -0.00128   0.00613   0.01231   0.01323   0.01582
 Alpha virt. eigenvalues --    0.02572   0.03008   0.03342   0.03532   0.03973

 Mulliken charges:
               1
     1  C   -0.324758
     2  N    0.017265
     3  C   -0.331439
     4  N   -0.025023
     5  C   -0.539034
     6  C    0.402641
     7  C    0.061078
     8  N   -0.478377
     9  C    0.137916
    10  O   -0.348846
    11  C   -0.163445
    12  O   -0.328007
    13  C   -0.298497
    14  C    0.110289
    15  C   -0.212390
    16  C    0.001433
    17  C   -0.432120
    18  C    0.487763
    19  H    0.147371
    20  H    0.144560
    21  H    0.167238
    22  H    0.153208
    23  H    0.152680
    24  H    0.162330
    25  H    0.131020
    26  H    0.224838
    27  H    0.178732
    28  H    0.162190
    29  H    0.135585
    30  H    0.128401
    31  H    0.123799
    32  H    0.128773
    33  H    0.122825
 Sum of Mulliken charges =  -0.00000

 Dipole moment (field-independent basis, Debye):
    X=             -2.1667    Y=             -1.5483    Z=              0.5682  Tot=              2.7230
 Quadrupole moment (field-independent basis, Debye-Ang):
   XX=            -78.4363   YY=           -121.3049   ZZ=           -106.7740
   XY=              9.5980   XZ=              3.5139   YZ=              2.0284

 Normal termination of Gaussian 16 at Tue Aug  5 22:26:20 2025.
