 Gaussian 16, Revision C.02,
 Gaussian 16:  ES64L-G16RevC.02  7-Dec-2021

 ----------------------------------------------------------
 # td=(50-50,nstates=3) b3lyp/6-31+g(d,p) geom=connectivity
 ----------------------------------------------------------

 -------------------
 Title Card Required
 -------------------
 Symbolic Z-matrix:
 Charge =  0 Multiplicity = 1

                         Standard orientation:
 ---------------------------------------------------------------------
 Center     Atomic      Atomic             Coordinates (Angstroms)
 Number     Number       Type             X           Y           Z
 ---------------------------------------------------------------------
      1          6           0        3.023268    0.840212    1.760026
      2          6           0        2.847843   -0.012032    0.734377
      3          6           0        3.985866   -0.682269    0.155088
      4          7           0        4.903500   -1.209135   -0.327974
      5          6           0        1.529422   -0.338331    0.152669
      6          6           0        0.555090    0.395597   -0.413432
      7          6           0        0.466595    1.873015   -0.745779
      8          6           0        0.004494    2.740789    0.445046
      9          6           0        1.750053    2.438174   -1.383172
     10          6           0       -0.535388   -0.574662   -0.843951
     11          6           0       -1.927267   -0.315628   -0.284579
     12          6           0       -2.167292   -0.372101    1.096448
     13          6           0       -3.443122   -0.128600    1.604903
     14          6           0       -4.497785    0.180599    0.739436
     15          6           0       -4.267886    0.238022   -0.636040
     16          6           0       -2.989025   -0.011250   -1.143747
     17          6           0        0.035767   -1.935918   -0.428551
     18          8           0       -0.430521   -3.034398   -0.552622
     19          8           0        1.264032   -1.719709    0.162252
     20          1           0        2.174196    1.322060    2.230073
     21          1           0        4.013540    1.060235    2.143770
     22          1           0       -0.325055    1.946751   -1.503683
     23          1           0       -0.193564    3.763902    0.107147
     24          1           0       -0.910543    2.349171    0.897408
     25          1           0        0.776777    2.791164    1.219327
     26          1           0        1.578258    3.467857   -1.714447
     27          1           0        2.056515    1.848725   -2.253033
     28          1           0        2.583497    2.452996   -0.675293
     29          1           0       -0.606117   -0.582621   -1.940708
     30          1           0       -1.355961   -0.615167    1.778055
     31          1           0       -3.615494   -0.184222    2.675787
     32          1           0       -5.491116    0.368853    1.135774
     33          1           0       -5.081457    0.470464   -1.316903
     34          1           0       -2.819846    0.022907   -2.216948
 ---------------------------------------------------------------------

 SCF Done:  E(RB3LYP) =  -823.938637546     A.U. after   17 cycles

 Excitation energies and oscillator strengths:

 Excited State   1:      Triplet-A      2.8983 eV  427.78 nm  f=0.0000  <S**2>=2.000
      63 -> 68        -0.31952
      64 -> 68        -0.14509
      66 -> 68        -0.17050
      67 -> 68         0.54308
      67 -> 69        -0.12885
 This state for optimization and/or second-order correction.
 Total Energy, E(TD-HF/TD-DFT) =  -823.832126955
 Copying the excited state density for this state as the 1-particle RhoCI density.

 Excited State   2:      Triplet-A      3.5533 eV  348.93 nm  f=0.0000  <S**2>=2.000
      63 -> 68         0.46468
      64 -> 68         0.24902
      66 -> 69         0.10390
      67 -> 68         0.19675
      67 -> 69        -0.30722
      67 -> 71         0.10710

 Excited State   3:      Triplet-A      3.6968 eV  335.39 nm  f=0.0000  <S**2>=2.000
      64 -> 70        -0.10622
      65 -> 70        -0.20591
      65 -> 71         0.38973
      66 -> 70         0.40205
      66 -> 71         0.16448
      67 -> 70         0.26361

 Excited State   4:      Singlet-A      3.9835 eV  311.25 nm  f=0.0693  <S**2>=0.000
      67 -> 68         0.68741

 Excited State   5:      Singlet-A      4.4143 eV  280.87 nm  f=0.0007  <S**2>=0.000
      66 -> 68         0.68738

 Excited State   6:      Singlet-A      4.6552 eV  266.34 nm  f=0.0003  <S**2>=0.000
      65 -> 68         0.70156

 The electronic state is 1-A.
 Alpha  occ. eigenvalues --  -19.22735 -19.16602 -14.35864 -10.33980 -10.28574
 Alpha  occ. eigenvalues --  -10.27534 -10.24965 -10.24592 -10.24214 -10.23122
 Alpha  occ. eigenvalues --  -10.22866 -10.22808 -10.21461 -10.21407 -10.21354
 Alpha  occ. eigenvalues --  -10.21341 -10.21243 -10.19942 -10.19706  -1.13556
 Alpha  occ. eigenvalues --   -1.05577  -0.92570  -0.88657  -0.86447  -0.84519
 Alpha  occ. eigenvalues --   -0.80730  -0.76805  -0.76610  -0.73658  -0.70601
 Alpha  occ. eigenvalues --   -0.67967  -0.64485  -0.63598  -0.62612  -0.60132
 Alpha  occ. eigenvalues --   -0.57199  -0.54742  -0.53122  -0.51267  -0.49877
 Alpha  occ. eigenvalues --   -0.48628  -0.47784  -0.46938  -0.46765  -0.45587
 Alpha  occ. eigenvalues --   -0.44688  -0.44119  -0.43549  -0.42693  -0.41735
 Alpha  occ. eigenvalues --   -0.40883  -0.40764  -0.39560  -0.38603  -0.37880
 Alpha  occ. eigenvalues --   -0.37386  -0.37320  -0.36683  -0.36266  -0.36067
 Alpha  occ. eigenvalues --   -0.35601  -0.34822  -0.30786  -0.29756  -0.27429
 Alpha  occ. eigenvalues --   -0.26897  -0.25730
 Alpha virt. eigenvalues --   -0.08539  -0.04066  -0.03617  -0.03295  -0.01434
 Alpha virt. eigenvalues --   -0.00229  -0.00132   0.00180   0.01072   0.01653
 Alpha virt. eigenvalues --    0.01793   0.02848   0.02895   0.03440   0.03551

 Mulliken charges:
               1
     1  C   -0.527336
     2  C   -0.067723
     3  C    0.095412
     4  N   -0.483088
     5  C    0.797282
     6  C   -0.573501
     7  C    0.402357
     8  C   -0.593372
     9  C   -0.577447
    10  C    0.147885
    11  C    0.329024
    12  C   -0.093808
    13  C   -0.113180
    14  C   -0.055954
    15  C   -0.100421
    16  C   -0.275105
    17  C    0.102678
    18  O   -0.392517
    19  O   -0.184762
    20  H    0.154444
    21  H    0.170163
    22  H    0.135185
    23  H    0.150179
    24  H    0.165035
    25  H    0.131881
    26  H    0.147738
    27  H    0.153651
    28  H    0.158407
    29  H    0.170074
    30  H    0.120200
    31  H    0.131053
    32  H    0.129489
    33  H    0.131178
    34  H    0.114900
 Sum of Mulliken charges =  -0.00000

 Dipole moment (field-independent basis, Debye):
    X=             -3.4848    Y=              6.4791    Z=              1.3505  Tot=              7.4798
 Quadrupole moment (field-independent basis, Debye-Ang):
   XX=           -123.9839   YY=           -128.1383   ZZ=           -102.6146
   XY=              8.6176   XZ=              7.1108   YZ=             -1.2972

 Normal termination of Gaussian 16 at Tue Aug  5 22:33:32 2025.
