 Gaussian 16, Revision C.02,
 Gaussian 16:  ES64L-G16RevC.02  7-Dec-2021

 ----------------------------------------------------------
 # td=(50-50,nstates=3) b3lyp/6-31+g(d,p) geom=connectivity
 ----------------------------------------------------------

 -------------------
 Title Card Required
 -------------------
 Symbolic Z-matrix:
 Charge =  0 Multiplicity = 1

                         Standard orientation:
 ---------------------------------------------------------------------
 Center     Atomic      Atomic             Coordinates (Angstroms)
 Number     Number       Type             X           Y           Z
 ---------------------------------------------------------------------
      1          6           0       -7.017621    1.562957   -0.246884
      2          7           0       -5.804392    1.142794    0.446058
      3          6           0       -5.919583    0.908343    1.878187
      4          7           0       -5.029774    0.328148   -0.311020
      5          6           0       -4.174052   -0.472560    0.214955
      6          6           0       -3.269003   -1.265758   -0.715990
      7          6           0       -3.455101   -2.708171   -0.480298
      8          7           0       -3.621389   -3.839384   -0.275345
      9          6           0       -1.803273   -0.831573   -0.588122
     10          6           0       -1.426567    0.401384   -1.137056
     11          6           0       -0.114277    0.858042   -1.016337
     12          6           0        0.865778    0.102931   -0.343628
     13         14           0        2.651618    0.682743   -0.196127
     14          6           0        2.840335    2.560034   -0.434466
     15          6           0        2.153344    3.345790    0.703710
     16          6           0        4.314822    2.975992   -0.587583
     17          6           0        4.017289   -0.478098   -0.553476
     18          6           0        5.004520   -1.342850   -1.037693
     19          6           0        5.789862   -2.000006   -0.086915
     20          6           0        5.591770   -1.804203    1.296074
     21          6           0        4.600678   -0.944551    1.777034
     22          6           0        3.817625   -0.284056    0.823404
     23          6           0        0.470416   -1.130802    0.201921
     24          6           0       -0.842144   -1.594543    0.083616
     25          1           0       -7.398795    2.479185    0.212465
     26          1           0       -6.765595    1.762133   -1.289240
     27          1           0       -7.805736    0.793744   -0.215272
     28          1           0       -6.613463    1.640079    2.295313
     29          1           0       -6.290202   -0.105868    2.104382
     30          1           0       -4.950185    1.042973    2.368587
     31          1           0       -4.011451   -0.599875    1.286013
     32          1           0       -3.612102   -1.058735   -1.736480
     33          1           0       -2.165221    1.007618   -1.655153
     34          1           0        0.141128    1.817215   -1.459274
     35          1           0        2.322331    2.803268   -1.375116
     36          1           0        2.219308    4.425706    0.519694
     37          1           0        1.093013    3.091798    0.807139
     38          1           0        2.638543    3.147658    1.666706
     39          1           0        4.392575    4.057222   -0.758246
     40          1           0        4.799498    2.466754   -1.426462
     41          1           0        4.889351    2.741649    0.315769
     42          1           0        5.168864   -1.509228   -2.099524
     43          1           0        6.572495   -2.680416   -0.413540
     44          1           0        6.226880   -2.338933    1.998064
     45          1           0        4.459416   -0.809491    2.846743
     46          1           0        1.197573   -1.745265    0.726173
     47          1           0       -1.110900   -2.558297    0.506475
 ---------------------------------------------------------------------

 SCF Done:  E(RB3LYP) =  -1229.69422895     A.U. after   16 cycles

 Excitation energies and oscillator strengths:

 Excited State   1:      Triplet-A      3.3045 eV  375.19 nm  f=0.0000  <S**2>=2.000
      89 -> 90         0.41313
      89 -> 91         0.20676
      89 -> 92        -0.17307
      89 -> 93        -0.38610
      89 -> 94         0.15921
      89 -> 95        -0.12639
      89 -> 96        -0.10935
 This state for optimization and/or second-order correction.
 Total Energy, E(TD-HF/TD-DFT) =  -1229.57278953
 Copying the excited state density for this state as the 1-particle RhoCI density.

 Excited State   2:      Triplet-A      3.5507 eV  349.18 nm  f=0.0000  <S**2>=2.000
      83 -> 90         0.20990
      85 -> 91         0.30345
      85 -> 92        -0.10458
      85 -> 94        -0.11801
      86 -> 90        -0.14612
      87 -> 90         0.29628
      88 -> 90         0.31799
      89 -> 90        -0.15846
      89 -> 91         0.14574
      89 -> 93        -0.14589

 Excited State   3:      Triplet-A      3.6748 eV  337.39 nm  f=0.0000  <S**2>=2.000
      86 -> 91         0.21679
      86 -> 92         0.50803
      87 -> 92         0.18365
      87 -> 93        -0.12279
      87 -> 94        -0.15592
      88 -> 91         0.11194
      88 -> 92         0.11622
      88 -> 93         0.12172
      88 -> 94         0.20380

 Excited State   4:      Singlet-A      4.4746 eV  277.09 nm  f=0.1967  <S**2>=0.000
      89 -> 90         0.69687

 Excited State   5:      Singlet-A      4.7923 eV  258.71 nm  f=0.0805  <S**2>=0.000
      85 -> 90         0.22144
      89 -> 91         0.61675
      89 -> 92        -0.16158

 Excited State   6:      Singlet-A      4.9911 eV  248.41 nm  f=0.0088  <S**2>=0.000
      87 -> 90        -0.36479
      88 -> 90         0.52883
      88 -> 92         0.14932
      89 -> 92        -0.15992

 The electronic state is 1-A.
 Alpha  occ. eigenvalues --  -66.14720 -14.39729 -14.38593 -14.34463 -10.25397
 Alpha  occ. eigenvalues --  -10.23840 -10.23683 -10.23352 -10.22659 -10.22491
 Alpha  occ. eigenvalues --  -10.21013 -10.20719 -10.20648 -10.20523 -10.20188
 Alpha  occ. eigenvalues --  -10.20131 -10.20052 -10.20004 -10.19723 -10.19448
 Alpha  occ. eigenvalues --  -10.18798 -10.18315 -10.18131 -10.18076  -5.28960
 Alpha  occ. eigenvalues --   -3.64931  -3.64899  -3.64721  -1.02880  -0.91553
 Alpha  occ. eigenvalues --   -0.88062  -0.86307  -0.85694  -0.80634  -0.78983
 Alpha  occ. eigenvalues --   -0.76126  -0.75837  -0.74521  -0.74413  -0.73488
 Alpha  occ. eigenvalues --   -0.68977  -0.67779  -0.63355  -0.62359  -0.60667
 Alpha  occ. eigenvalues --   -0.58974  -0.57924  -0.57900  -0.54768  -0.53601
 Alpha  occ. eigenvalues --   -0.52387  -0.51020  -0.49050  -0.48666  -0.47580
 Alpha  occ. eigenvalues --   -0.46166  -0.45685  -0.45438  -0.44589  -0.44537
 Alpha  occ. eigenvalues --   -0.43904  -0.43263  -0.43158  -0.41916  -0.41766
 Alpha  occ. eigenvalues --   -0.41043  -0.40050  -0.39798  -0.39413  -0.39019
 Alpha  occ. eigenvalues --   -0.37902  -0.37322  -0.37029  -0.36699  -0.35972
 Alpha  occ. eigenvalues --   -0.35489  -0.34829  -0.34603  -0.33605  -0.33354
 Alpha  occ. eigenvalues --   -0.30409  -0.29314  -0.28478  -0.27351  -0.26754
 Alpha  occ. eigenvalues --   -0.25785  -0.25492  -0.25338  -0.22959
 Alpha virt. eigenvalues --   -0.04549  -0.03123  -0.02822  -0.01756  -0.01093
 Alpha virt. eigenvalues --   -0.00813  -0.00197   0.00563   0.00787   0.01192
 Alpha virt. eigenvalues --    0.01590   0.02117   0.02216   0.02841   0.02996

 Mulliken charges:
               1
     1  C   -0.322734
     2  N    0.138084
     3  C   -0.333334
     4  N   -0.118284
     5  C   -0.632213
     6  C    0.254835
     7  C    0.095935
     8  N   -0.481410
     9  C    0.494845
    10  C   -0.247282
    11  C   -0.033202
    12  C   -0.057725
    13  Si   1.116643
    14  C    0.039434
    15  C   -0.703784
    16  C   -0.504528
    17  C    1.077495
    18  C   -1.141298
    19  C   -0.241742
    20  C   -0.207334
    21  C   -1.286105
    22  C    0.559350
    23  C   -0.176137
    24  C   -0.583140
    25  H    0.145198
    26  H    0.166602
    27  H    0.142584
    28  H    0.151826
    29  H    0.156967
    30  H    0.151204
    31  H    0.123479
    32  H    0.196853
    33  H    0.127201
    34  H    0.113059
    35  H    0.137649
    36  H    0.146980
    37  H    0.150992
    38  H    0.156310
    39  H    0.139704
    40  H    0.155117
    41  H    0.161703
    42  H    0.123585
    43  H    0.124745
    44  H    0.124557
    45  H    0.122217
    46  H    0.134478
    47  H    0.140620
 Sum of Mulliken charges =  -0.00000

 Dipole moment (field-independent basis, Debye):
    X=             -1.0112    Y=              4.7696    Z=              1.1614  Tot=              5.0121
 Quadrupole moment (field-independent basis, Debye-Ang):
   XX=           -133.2452   YY=           -166.4377   ZZ=           -145.2790
   XY=            -23.0614   XZ=             -6.8318   YZ=             -2.5372

 Normal termination of Gaussian 16 at Tue Aug  5 22:45:21 2025.
