 Gaussian 16, Revision C.02,
 Gaussian 16:  ES64L-G16RevC.02  7-Dec-2021

 ----------------------------------------------------------
 # td=(50-50,nstates=3) b3lyp/6-31+g(d,p) geom=connectivity
 ----------------------------------------------------------

 -------------------
 Title Card Required
 -------------------
 Symbolic Z-matrix:
 Charge =  0 Multiplicity = 1

                         Standard orientation:
 ---------------------------------------------------------------------
 Center     Atomic      Atomic             Coordinates (Angstroms)
 Number     Number       Type             X           Y           Z
 ---------------------------------------------------------------------
      1          6           0       -2.107960   -0.628919    1.841588
      2         14           0       -2.119030   -0.479384   -0.041528
      3          6           0       -1.355903   -2.000125   -0.862866
      4          6           0       -3.905692   -0.300036   -0.656247
      5          6           0       -1.264026    1.152500   -0.589223
      6          7           0        0.004957    1.475535    0.066820
      7          6           0        0.599852    2.769373   -0.237084
      8          7           0        0.802688    0.405548    0.275308
      9          6           0        2.073140    0.522875    0.441365
     10          6           0        2.870326   -0.720148    0.770008
     11          6           0        3.989266   -0.931790   -0.159795
     12          7           0        4.877948   -1.079920   -0.892907
     13          1           0       -2.563327    0.250203    2.312072
     14          1           0       -1.086244   -0.722495    2.221675
     15          1           0       -2.675073   -1.510144    2.164153
     16          1           0       -1.343314   -1.895915   -1.954206
     17          1           0       -0.326519   -2.156329   -0.529311
     18          1           0       -1.936530   -2.899353   -0.624254
     19          1           0       -3.946045   -0.141530   -1.740643
     20          1           0       -4.417694    0.542412   -0.176554
     21          1           0       -4.484311   -1.205229   -0.437360
     22          1           0       -1.142905    1.135068   -1.688617
     23          1           0       -1.963551    1.969019   -0.370193
     24          1           0        1.223231    3.112181    0.596060
     25          1           0        1.220502    2.736074   -1.148734
     26          1           0       -0.201426    3.494942   -0.382456
     27          1           0        2.619010    1.465113    0.385239
     28          1           0        3.289830   -0.662526    1.784416
     29          1           0        2.207608   -1.590630    0.739081
 ---------------------------------------------------------------------

 SCF Done:  E(RB3LYP) =  -768.855021218     A.U. after   13 cycles

 Excitation energies and oscillator strengths:

 Excited State   1:      Triplet-A      3.3069 eV  374.92 nm  f=0.0000  <S**2>=2.000
      50 -> 51         0.59290
      50 -> 52        -0.31679
      50 -> 54        -0.11762
 This state for optimization and/or second-order correction.
 Total Energy, E(TD-HF/TD-DFT) =  -768.733493592
 Copying the excited state density for this state as the 1-particle RhoCI density.

 Excited State   2:      Triplet-A      4.9603 eV  249.95 nm  f=0.0000  <S**2>=2.000
      50 -> 51         0.32623
      50 -> 52         0.57587
      50 -> 53        -0.18994

 Excited State   3:      Singlet-A      4.9660 eV  249.67 nm  f=0.0447  <S**2>=0.000
      50 -> 51         0.54101
      50 -> 52         0.41405
      50 -> 53        -0.15121

 Excited State   4:      Triplet-A      5.0262 eV  246.67 nm  f=0.0000  <S**2>=2.000
      46 -> 51        -0.10635
      49 -> 51         0.57639
      49 -> 52        -0.31037
      49 -> 54        -0.11973

 Excited State   5:      Singlet-A      5.3187 eV  233.11 nm  f=0.2194  <S**2>=0.000
      50 -> 51        -0.40267
      50 -> 52         0.51393
      50 -> 53        -0.15375
      50 -> 54        -0.17861

 Excited State   6:      Singlet-A      5.4669 eV  226.79 nm  f=0.0019  <S**2>=0.000
      50 -> 52         0.19850
      50 -> 53         0.65392
      50 -> 57         0.12980

 The electronic state is 1-A.
 Alpha  occ. eigenvalues --  -66.12932 -14.39612 -14.38557 -14.34277 -10.24667
 Alpha  occ. eigenvalues --  -10.23726 -10.23693 -10.23132 -10.21133 -10.16801
 Alpha  occ. eigenvalues --  -10.16550 -10.16411  -5.27307  -3.63230  -3.63176
 Alpha  occ. eigenvalues --   -3.63144  -1.02729  -0.91115  -0.86574  -0.78475
 Alpha  occ. eigenvalues --   -0.73961  -0.71235  -0.68180  -0.67986  -0.67140
 Alpha  occ. eigenvalues --   -0.57434  -0.54448  -0.51769  -0.49761  -0.48421
 Alpha  occ. eigenvalues --   -0.46640  -0.45151  -0.43367  -0.42102  -0.41583
 Alpha  occ. eigenvalues --   -0.41220  -0.40696  -0.40628  -0.39218  -0.38868
 Alpha  occ. eigenvalues --   -0.38363  -0.37163  -0.36061  -0.33524  -0.33156
 Alpha  occ. eigenvalues --   -0.30853  -0.30437  -0.30225  -0.29061  -0.22664
 Alpha virt. eigenvalues --   -0.02131  -0.01443  -0.00030   0.00352   0.01179
 Alpha virt. eigenvalues --    0.01982   0.02061   0.02507   0.02807   0.03778
 Alpha virt. eigenvalues --    0.04193   0.04475   0.04989   0.05752   0.06502

 Mulliken charges:
               1
     1  C   -0.756544
     2  Si   1.173457
     3  C   -0.718012
     4  C   -0.726288
     5  C   -0.738084
     6  N    0.083242
     7  C   -0.268429
     8  N   -0.085859
     9  C   -0.080943
    10  C   -0.345364
    11  C    0.257580
    12  N   -0.512563
    13  H    0.158683
    14  H    0.177203
    15  H    0.157816
    16  H    0.157422
    17  H    0.172930
    18  H    0.156530
    19  H    0.158967
    20  H    0.157055
    21  H    0.161791
    22  H    0.145767
    23  H    0.144354
    24  H    0.145489
    25  H    0.153891
    26  H    0.152757
    27  H    0.126743
    28  H    0.193450
    29  H    0.196958
 Sum of Mulliken charges =  -0.00000

 Dipole moment (field-independent basis, Debye):
    X=             -3.5385    Y=              2.3722    Z=              1.8192  Tot=              4.6323
 Quadrupole moment (field-independent basis, Debye-Ang):
   XX=           -106.3893   YY=            -77.9783   ZZ=            -85.1046
   XY=              6.5422   XZ=             11.7874   YZ=             -3.6900

 Normal termination of Gaussian 16 at Tue Aug  5 22:36:54 2025.
