 Gaussian 16, Revision C.02,
 Gaussian 16:  ES64L-G16RevC.02  7-Dec-2021

 ----------------------------------------------------------
 # td=(50-50,nstates=3) b3lyp/6-31+g(d,p) geom=connectivity
 ----------------------------------------------------------

 -------------------
 Title Card Required
 -------------------
 Symbolic Z-matrix:
 Charge =  0 Multiplicity = 1

                         Standard orientation:
 ---------------------------------------------------------------------
 Center     Atomic      Atomic             Coordinates (Angstroms)
 Number     Number       Type             X           Y           Z
 ---------------------------------------------------------------------
      1          6           0        4.958216    0.025832    1.990530
      2          6           0        4.150925   -0.218773    0.736171
      3          6           0        4.690269    0.056385   -0.529825
      4          6           0        3.955729   -0.201117   -1.688008
      5          6           0        2.667101   -0.734724   -1.601019
      6          6           0        2.102524   -1.011984   -0.349878
      7          6           0        0.702985   -1.577676   -0.239873
      8          6           0       -0.411066   -0.555062   -0.134529
      9          6           0       -0.240482    0.805378   -0.150830
     10          6           0       -1.345005    1.726002   -0.048334
     11         17           0       -0.964525    3.435135   -0.084231
     12          6           0       -2.648737    1.326107    0.073255
     13          6           0       -2.837211   -0.077575    0.091381
     14          6           0       -1.768658   -1.014887   -0.007857
     15          7           0       -2.210627   -2.262946    0.033992
     16          8           0       -3.571131   -2.177921    0.160833
     17          7           0       -3.971324   -0.785348    0.197490
     18          8           0       -5.160766   -0.504325    0.308287
     19          6           0        2.856322   -0.750024    0.803371
     20          1           0        5.483618    0.985571    1.945999
     21          1           0        4.323272    0.028751    2.881185
     22          1           0        5.717483   -0.753943    2.128201
     23          1           0        5.692578    0.470571   -0.607494
     24          1           0        4.387826    0.011846   -2.661687
     25          1           0        2.100735   -0.936919   -2.506727
     26          1           0        0.488862   -2.218917   -1.104847
     27          1           0        0.633041   -2.240795    0.632135
     28          1           0        0.756803    1.219504   -0.244232
     29          1           0       -3.480499    2.014758    0.150491
     30          1           0        2.424569   -0.968987    1.778239
 ---------------------------------------------------------------------

 SCF Done:  E(RB3LYP) =  -1260.16525749     A.U. after   18 cycles

 Excitation energies and oscillator strengths:

 Excited State   1:      Triplet-A      1.2984 eV  954.92 nm  f=0.0000  <S**2>=2.000
      71 -> 72         0.71872
      71 <- 72         0.22373
 This state for optimization and/or second-order correction.
 Total Energy, E(TD-HF/TD-DFT) =  -1260.11754317
 Copying the excited state density for this state as the 1-particle RhoCI density.

 Excited State   2:      Triplet-A      3.2644 eV  379.80 nm  f=0.0000  <S**2>=2.000
      67 -> 72         0.54726
      69 -> 72        -0.11329
      70 -> 72         0.16971
      71 -> 73         0.14593
      71 -> 75        -0.26067
      71 -> 76        -0.19041

 Excited State   3:      Singlet-A      3.2712 eV  379.02 nm  f=0.1363  <S**2>=0.000
      71 -> 72         0.69513

 Excited State   4:      Triplet-A      3.4537 eV  358.99 nm  f=0.0000  <S**2>=2.000
      66 -> 72        -0.14754
      67 -> 72        -0.14013
      68 -> 72        -0.21999
      70 -> 72         0.61245

 Excited State   5:      Singlet-A      3.4935 eV  354.90 nm  f=0.0033  <S**2>=0.000
      69 -> 72         0.11366
      70 -> 72         0.69138

 Excited State   6:      Singlet-A      3.6940 eV  335.63 nm  f=0.0024  <S**2>=0.000
      69 -> 72         0.69206
      70 -> 72        -0.11484

 The electronic state is 1-A.
 Alpha  occ. eigenvalues -- -101.57736 -19.29424 -19.20303 -14.55997 -14.42564
 Alpha  occ. eigenvalues --  -10.29219 -10.28065 -10.27060 -10.25161 -10.24557
 Alpha  occ. eigenvalues --  -10.23809 -10.22358 -10.21820 -10.21695 -10.20811
 Alpha  occ. eigenvalues --  -10.20565 -10.20506 -10.20411 -10.19821  -9.49225
 Alpha  occ. eigenvalues --   -7.25645  -7.24663  -7.24616  -1.23220  -1.13378
 Alpha  occ. eigenvalues --   -0.94246  -0.90153  -0.89947  -0.87782  -0.84021
 Alpha  occ. eigenvalues --   -0.80858  -0.78652  -0.77110  -0.72265  -0.70131
 Alpha  occ. eigenvalues --   -0.69501  -0.66893  -0.62522  -0.61122  -0.58882
 Alpha  occ. eigenvalues --   -0.56862  -0.55270  -0.55186  -0.52761  -0.51576
 Alpha  occ. eigenvalues --   -0.49413  -0.49030  -0.47336  -0.46450  -0.45138
 Alpha  occ. eigenvalues --   -0.44657  -0.43553  -0.43277  -0.42978  -0.42324
 Alpha  occ. eigenvalues --   -0.41741  -0.41415  -0.40590  -0.39470  -0.38114
 Alpha  occ. eigenvalues --   -0.36467  -0.36408  -0.35487  -0.35339  -0.33856
 Alpha  occ. eigenvalues --   -0.31049  -0.30616  -0.30065  -0.26556  -0.25794
 Alpha  occ. eigenvalues --   -0.23847
 Alpha virt. eigenvalues --   -0.11080  -0.03120  -0.03009  -0.02246  -0.01756
 Alpha virt. eigenvalues --   -0.01092  -0.00700   0.00516   0.01011   0.01111
 Alpha virt. eigenvalues --    0.01957   0.02721   0.02978   0.03032   0.03647

 Mulliken charges:
               1
     1  C   -0.658048
     2  C   -0.039619
     3  C   -0.010229
     4  C   -0.192861
     5  C   -0.275720
     6  C    0.331042
     7  C    0.048022
     8  C    1.624368
     9  C   -1.831616
    10  C    0.380029
    11  Cl   0.280073
    12  C    0.461105
    13  C   -0.231387
    14  C   -0.648376
    15  N   -0.506731
    16  O    0.386619
    17  N   -0.574995
    18  O    0.034195
    19  C   -0.214321
    20  H    0.159929
    21  H    0.150631
    22  H    0.169097
    23  H    0.123563
    24  H    0.127993
    25  H    0.118010
    26  H    0.174048
    27  H    0.172942
    28  H    0.161037
    29  H    0.172786
    30  H    0.108413
 Sum of Mulliken charges =  -0.00000

 Dipole moment (field-independent basis, Debye):
    X=              4.6319    Y=              1.2832    Z=             -0.0442  Tot=              4.8066
 Quadrupole moment (field-independent basis, Debye-Ang):
   XX=           -128.8420   YY=           -125.3926   ZZ=           -112.6179
   XY=             -5.7628   XZ=              2.6735   YZ=              0.2252

 Normal termination of Gaussian 16 at Mon Sep 22 01:00:20 2025.
