 Gaussian 16, Revision C.02,
 Gaussian 16:  ES64L-G16RevC.02  7-Dec-2021

 ----------------------------------------------------------
 # td=(50-50,nstates=3) b3lyp/6-31+g(d,p) geom=connectivity
 ----------------------------------------------------------

 -------------------
 Title Card Required
 -------------------
 Symbolic Z-matrix:
 Charge =  0 Multiplicity = 1

                         Standard orientation:
 ---------------------------------------------------------------------
 Center     Atomic      Atomic             Coordinates (Angstroms)
 Number     Number       Type             X           Y           Z
 ---------------------------------------------------------------------
      1          6           0        4.817032   -1.945077   -0.865330
      2          6           0        4.174947   -0.768075   -0.677117
      3          6           0        4.897485    0.436197   -0.986914
      4          7           0        5.523193    1.371564   -1.280857
      5          6           0        2.767022   -0.712780   -0.270081
      6          6           0        1.928944    0.239272    0.242731
      7          6           0        2.240500    1.637733    0.759068
      8          6           0        3.457959    1.689698    1.706507
      9          6           0        2.319652    2.704227   -0.354052
     10          6           0        0.635514   -0.430247    0.432541
     11          6           0       -0.583647    0.033195    0.819144
     12          6           0       -1.665925   -0.914719    1.261308
     13          8           0       -1.519965   -1.768439    2.098890
     14          8           0       -2.912644   -0.684371    0.745809
     15          6           0       -3.191654    0.467086    0.001347
     16          6           0       -4.504860    0.322626   -0.746440
     17          6           0       -4.393041   -0.872178   -1.725018
     18          6           0       -5.639694    0.051098    0.271993
     19          6           0       -4.830972    1.600869   -1.539150
     20          6           0       -2.362919    1.515105    0.053812
     21          6           0       -1.061354    1.465517    0.830464
     22          6           0        0.832575   -1.849806   -0.014018
     23          8           0        0.069827   -2.767951   -0.144862
     24          8           0        2.149989   -1.948471   -0.430813
     25          1           0        4.310311   -2.886125   -0.691508
     26          1           0        5.847347   -1.963676   -1.200466
     27          1           0        1.388217    1.899442    1.391329
     28          1           0        3.506549    2.677456    2.177478
     29          1           0        3.365791    0.942291    2.500996
     30          1           0        4.406429    1.533027    1.190907
     31          1           0        2.401082    3.701961    0.090995
     32          1           0        1.427532    2.688338   -0.989634
     33          1           0        3.189663    2.554863   -0.996514
     34          1           0       -5.341598   -1.004791   -2.256384
     35          1           0       -3.607649   -0.699664   -2.468821
     36          1           0       -4.165450   -1.800708   -1.195305
     37          1           0       -6.589108   -0.076915   -0.258951
     38          1           0       -5.749822    0.888511    0.969599
     39          1           0       -5.445906   -0.854891    0.851350
     40          1           0       -4.062984    1.821927   -2.287992
     41          1           0       -5.780207    1.467045   -2.067399
     42          1           0       -4.937824    2.470848   -0.882376
     43          1           0       -2.598828    2.419225   -0.492474
     44          1           0       -0.335864    2.129056    0.363010
     45          1           0       -1.213081    1.827253    1.861193
 ---------------------------------------------------------------------

 SCF Done:  E(RB3LYP) =  -1092.31281029     A.U. after   18 cycles

 Excitation energies and oscillator strengths:

 Excited State   1:      Triplet-A      1.4369 eV  862.88 nm  f=0.0000  <S**2>=2.000
      83 -> 89        -0.11868
      87 -> 88         0.70691
      87 <- 88         0.17572
 This state for optimization and/or second-order correction.
 Total Energy, E(TD-HF/TD-DFT) =  -1092.26000670
 Copying the excited state density for this state as the 1-particle RhoCI density.

 Excited State   2:      Triplet-A      2.8193 eV  439.76 nm  f=0.0000  <S**2>=2.000
      82 -> 88         0.10500
      83 -> 88        -0.35593
      83 -> 89         0.16981
      87 -> 89         0.55192

 Excited State   3:      Triplet-A      2.8394 eV  436.66 nm  f=0.0000  <S**2>=2.000
      86 -> 88         0.67997
      86 -> 89         0.12940

 Excited State   4:      Singlet-A      3.0005 eV  413.22 nm  f=0.0045  <S**2>=0.000
      86 -> 88         0.69527

 Excited State   5:      Singlet-A      3.1148 eV  398.05 nm  f=0.3476  <S**2>=0.000
      87 -> 88         0.68531

 Excited State   6:      Singlet-A      3.5777 eV  346.54 nm  f=0.0163  <S**2>=0.000
      85 -> 88         0.67901
      85 -> 89         0.14098

 The electronic state is 1-A.
 Alpha  occ. eigenvalues --  -19.23263 -19.22282 -19.16941 -19.16443 -14.36741
 Alpha  occ. eigenvalues --  -10.34493 -10.34428 -10.29912 -10.27823 -10.27240
 Alpha  occ. eigenvalues --  -10.26050 -10.26011 -10.25100 -10.24607 -10.24033
 Alpha  occ. eigenvalues --  -10.23724 -10.22898 -10.22661 -10.21312 -10.19606
 Alpha  occ. eigenvalues --  -10.19482 -10.19341 -10.18684 -10.18651  -1.14515
 Alpha  occ. eigenvalues --   -1.13004  -1.06169  -1.04979  -0.93721  -0.88190
 Alpha  occ. eigenvalues --   -0.86220  -0.84934  -0.83549  -0.80269  -0.77003
 Alpha  occ. eigenvalues --   -0.74042  -0.70642  -0.70536  -0.69693  -0.69605
 Alpha  occ. eigenvalues --   -0.67751  -0.66207  -0.64235  -0.61759  -0.58463
 Alpha  occ. eigenvalues --   -0.57380  -0.56039  -0.53090  -0.51075  -0.49957
 Alpha  occ. eigenvalues --   -0.49868  -0.49285  -0.48467  -0.48281  -0.46968
 Alpha  occ. eigenvalues --   -0.46616  -0.45877  -0.45435  -0.45060  -0.44710
 Alpha  occ. eigenvalues --   -0.43636  -0.43608  -0.43070  -0.42644  -0.42140
 Alpha  occ. eigenvalues --   -0.40953  -0.40325  -0.39816  -0.39723  -0.38930
 Alpha  occ. eigenvalues --   -0.38159  -0.37761  -0.37645  -0.37244  -0.36828
 Alpha  occ. eigenvalues --   -0.36665  -0.36225  -0.36019  -0.34549  -0.34140
 Alpha  occ. eigenvalues --   -0.34076  -0.32851  -0.31296  -0.30640  -0.29142
 Alpha  occ. eigenvalues --   -0.25907  -0.24509
 Alpha virt. eigenvalues --   -0.12184  -0.07666  -0.02521  -0.01752  -0.00945
 Alpha virt. eigenvalues --   -0.00123   0.00220   0.00640   0.01055   0.01193
 Alpha virt. eigenvalues --    0.01763   0.01850   0.02527   0.02810   0.03481

 Mulliken charges:
               1
     1  C   -0.183302
     2  C    0.524712
     3  C   -0.415179
     4  N   -0.453576
     5  C   -0.099947
     6  C   -0.564243
     7  C    0.320696
     8  C   -0.603349
     9  C   -0.566459
    10  C    0.695271
    11  C    0.332599
    12  C   -0.082304
    13  O   -0.329996
    14  O   -0.285582
    15  C   -0.129802
    16  C    0.197401
    17  C   -0.440707
    18  C   -0.483976
    19  C   -0.588879
    20  C    0.201102
    21  C   -0.423565
    22  C    0.849589
    23  O   -0.430256
    24  O   -0.338324
    25  H    0.186668
    26  H    0.171950
    27  H    0.125927
    28  H    0.148855
    29  H    0.152038
    30  H    0.158526
    31  H    0.148707
    32  H    0.136214
    33  H    0.175231
    34  H    0.148370
    35  H    0.152490
    36  H    0.174125
    37  H    0.147477
    38  H    0.151194
    39  H    0.175858
    40  H    0.154247
    41  H    0.153755
    42  H    0.152238
    43  H    0.142428
    44  H    0.154229
    45  H    0.187551
 Sum of Mulliken charges =  -0.00000

 Dipole moment (field-independent basis, Debye):
    X=             -0.7939    Y=              3.7180    Z=             -0.6896  Tot=              3.8639
 Quadrupole moment (field-independent basis, Debye-Ang):
   XX=           -141.4255   YY=           -151.9721   ZZ=           -148.6677
   XY=            -21.4607   XZ=             11.2494   YZ=              9.5883

 Normal termination of Gaussian 16 at Tue Aug  5 22:57:39 2025.
