 Gaussian 16, Revision C.02,
 Gaussian 16:  ES64L-G16RevC.02  7-Dec-2021

 ----------------------------------------------------------
 # td=(50-50,nstates=3) b3lyp/6-31+g(d,p) geom=connectivity
 ----------------------------------------------------------

 -------------------
 Title Card Required
 -------------------
 Symbolic Z-matrix:
 Charge =  0 Multiplicity = 1

                         Standard orientation:
 ---------------------------------------------------------------------
 Center     Atomic      Atomic             Coordinates (Angstroms)
 Number     Number       Type             X           Y           Z
 ---------------------------------------------------------------------
      1          6           0       -4.315650   -1.534470   -0.169301
      2          6           0       -3.852007   -0.320229    0.652918
      3          6           0       -4.468398    0.985537    0.123628
      4          6           0       -2.313839   -0.243689    0.785888
      5          6           0       -1.570354   -0.040719   -0.544392
      6          7           0       -0.121148    0.010869   -0.356483
      7          6           0        0.710946    1.101117   -0.188116
      8          6           0        0.231843    2.422956   -0.223065
      9          7           0       -0.153891    3.525348   -0.247853
     10          6           0        2.015930    0.601804   -0.008576
     11          6           0        3.289628    1.185139    0.201123
     12          6           0        4.373431    0.342061    0.335261
     13          6           0        4.240260   -1.077709    0.267826
     14          6           0        3.014167   -1.676336    0.063777
     15          6           0        1.910063   -0.814234   -0.071976
     16          7           0        0.595060   -1.145365   -0.280870
     17          8           0        0.055453   -2.289390   -0.402672
     18          1           0       -5.405106   -1.637832   -0.120887
     19          1           0       -4.048538   -1.437698   -1.228368
     20          1           0       -3.872023   -2.464238    0.202969
     21          1           0       -4.222120   -0.461871    1.678116
     22          1           0       -4.139807    1.852144    0.708237
     23          1           0       -5.561787    0.943472    0.174480
     24          1           0       -4.203446    1.168526   -0.924709
     25          1           0       -2.051907    0.582180    1.459100
     26          1           0       -1.944917   -1.168665    1.242746
     27          1           0       -1.755446   -0.866886   -1.233945
     28          1           0       -1.845579    0.898796   -1.027943
     29          1           0        3.401819    2.263094    0.253415
     30          1           0        5.359691    0.766113    0.497280
     31          1           0        5.126166   -1.694608    0.379754
     32          1           0        2.883099   -2.750746    0.007602
 ---------------------------------------------------------------------

 SCF Done:  E(RB3LYP) =  -743.854105356     A.U. after   17 cycles

 Excitation energies and oscillator strengths:

 Excited State   1:      Triplet-A      1.5835 eV  783.00 nm  f=0.0000  <S**2>=2.000
      61 -> 62         0.70862
      61 <- 62         0.15905
 This state for optimization and/or second-order correction.
 Total Energy, E(TD-HF/TD-DFT) =  -743.795914446
 Copying the excited state density for this state as the 1-particle RhoCI density.

 Excited State   2:      Singlet-A      3.2886 eV  377.01 nm  f=0.1364  <S**2>=0.000
      61 -> 62         0.68797
      61 -> 63         0.11918

 Excited State   3:      Triplet-A      3.3800 eV  366.81 nm  f=0.0000  <S**2>=2.000
      59 -> 62        -0.42868
      59 -> 63        -0.13769
      61 -> 63         0.45885
      61 -> 64        -0.22806

 Excited State   4:      Triplet-A      3.7905 eV  327.09 nm  f=0.0000  <S**2>=2.000
      59 -> 62         0.13933
      60 -> 62         0.63566
      61 -> 63         0.13680
      61 -> 64         0.20376

 Excited State   5:      Singlet-A      4.3366 eV  285.90 nm  f=0.0310  <S**2>=0.000
      60 -> 62        -0.38267
      61 -> 63         0.55272
      61 -> 64         0.15676

 Excited State   6:      Singlet-A      4.4013 eV  281.70 nm  f=0.0023  <S**2>=0.000
      58 -> 62         0.67103
      61 -> 63        -0.12674
      61 -> 65        -0.10713

 The electronic state is 1-A.
 Alpha  occ. eigenvalues --  -19.15983 -14.52364 -14.46686 -14.35873 -10.28086
 Alpha  occ. eigenvalues --  -10.25923 -10.25701 -10.25324 -10.23923 -10.22581
 Alpha  occ. eigenvalues --  -10.22530 -10.22173 -10.22082 -10.20881 -10.20629
 Alpha  occ. eigenvalues --  -10.18728 -10.18604  -1.17033  -1.02803  -0.92326
 Alpha  occ. eigenvalues --   -0.90896  -0.85388  -0.82825  -0.81303  -0.77400
 Alpha  occ. eigenvalues --   -0.75657  -0.69552  -0.69526  -0.67475  -0.64388
 Alpha  occ. eigenvalues --   -0.63828  -0.58119  -0.57386  -0.55543  -0.53473
 Alpha  occ. eigenvalues --   -0.52081  -0.50112  -0.48048  -0.47490  -0.46607
 Alpha  occ. eigenvalues --   -0.46237  -0.45559  -0.44365  -0.42411  -0.41850
 Alpha  occ. eigenvalues --   -0.40783  -0.39934  -0.39009  -0.38466  -0.38271
 Alpha  occ. eigenvalues --   -0.37812  -0.37060  -0.35642  -0.34887  -0.34294
 Alpha  occ. eigenvalues --   -0.34149  -0.32806  -0.29276  -0.28961  -0.28069
 Alpha  occ. eigenvalues --   -0.21304
 Alpha virt. eigenvalues --   -0.08631  -0.02916  -0.01102  -0.01017  -0.00619
 Alpha virt. eigenvalues --    0.00145   0.00972   0.01528   0.01884   0.02316
 Alpha virt. eigenvalues --    0.03902   0.04156   0.04396   0.04638   0.05316

 Mulliken charges:
               1
     1  C   -0.545581
     2  C    0.191913
     3  C   -0.540750
     4  C   -0.195142
     5  C   -0.381246
     6  N   -0.051313
     7  C    0.977438
     8  C   -0.013319
     9  N   -0.599112
    10  C    1.493901
    11  C   -0.470523
    12  C   -0.279359
    13  C   -0.151025
    14  C   -0.560882
    15  C   -1.006560
    16  N   -0.118337
    17  O   -0.027095
    18  H    0.147287
    19  H    0.140022
    20  H    0.154437
    21  H    0.135118
    22  H    0.151410
    23  H    0.148372
    24  H    0.140464
    25  H    0.151544
    26  H    0.172344
    27  H    0.190785
    28  H    0.166296
    29  H    0.149800
    30  H    0.134013
    31  H    0.134875
    32  H    0.160226
 Sum of Mulliken charges =  -0.00000

 Dipole moment (field-independent basis, Debye):
    X=              0.7500    Y=             -1.2380    Z=              0.6181  Tot=              1.5739
 Quadrupole moment (field-independent basis, Debye-Ang):
   XX=            -81.5715   YY=           -122.6970   ZZ=           -103.3439
   XY=              0.9386   XZ=              1.0151   YZ=             -0.3665

 Normal termination of Gaussian 16 at Tue Aug  5 22:45:54 2025.
