 Gaussian 16, Revision C.02,
 Gaussian 16:  ES64L-G16RevC.02  7-Dec-2021

 ----------------------------------------------------------
 # td=(50-50,nstates=3) b3lyp/6-31+g(d,p) geom=connectivity
 ----------------------------------------------------------

 -------------------
 Title Card Required
 -------------------
 Symbolic Z-matrix:
 Charge =  0 Multiplicity = 1

                         Standard orientation:
 ---------------------------------------------------------------------
 Center     Atomic      Atomic             Coordinates (Angstroms)
 Number     Number       Type             X           Y           Z
 ---------------------------------------------------------------------
      1          6           0       -0.310105    2.641715    2.730764
      2          6           0       -1.457673    1.650895    2.728895
      3          8           0       -1.536075    1.066216    1.398248
      4          6           0       -2.498475    0.126513    1.233469
      5          8           0       -3.263487   -0.191791    2.122460
      6          7           0       -2.538420   -0.372245   -0.070009
      7          6           0       -3.568586   -1.462558   -0.411514
      8          6           0       -3.281527   -2.061456   -1.802007
      9          6           0       -3.411039   -2.613960    0.606852
     10          6           0       -4.979102   -0.854485   -0.379920
     11          6           0       -1.749677    0.201317   -1.084492
     12          8           0       -2.189064    0.450321   -2.192883
     13          6           0       -0.283578    0.482325   -0.833861
     14          6           0        0.262273    1.755815   -1.093176
     15          6           0       -0.531783    2.956887   -1.489507
     16          7           0        1.595909    1.963692   -0.946121
     17          8           0        2.116459    3.120380   -1.158263
     18          6           0        2.415945    0.900488   -0.552210
     19          6           0        3.800301    1.099691   -0.396593
     20          6           0        4.604077    0.043858   -0.015514
     21          6           0        4.032609   -1.228330    0.211500
     22         17           0        5.078265   -2.547458    0.691021
     23          6           0        2.678726   -1.451994    0.061678
     24          6           0        1.861301   -0.372652   -0.319191
     25          7           0        0.484423   -0.574585   -0.475768
     26          8           0       -0.003540   -1.752330   -0.298441
     27          1           0       -0.233575    3.101261    3.721501
     28          1           0        0.642328    2.149942    2.511466
     29          1           0       -0.468452    3.438796    1.998457
     30          1           0       -2.415372    2.129992    2.950071
     31          1           0       -1.307007    0.844597    3.451326
     32          1           0       -3.937792   -2.928381   -1.919786
     33          1           0       -3.483321   -1.366972   -2.616248
     34          1           0       -2.247790   -2.410661   -1.877218
     35          1           0       -4.059864   -3.437378    0.292587
     36          1           0       -3.691357   -2.320966    1.616344
     37          1           0       -2.377991   -2.973598    0.609175
     38          1           0       -5.068847   -0.055355   -1.122308
     39          1           0       -5.713367   -1.629578   -0.624072
     40          1           0       -5.219040   -0.457003    0.608458
     41          1           0       -1.598797    2.750795   -1.500325
     42          1           0       -0.305855    3.780512   -0.804792
     43          1           0       -0.222950    3.292676   -2.485425
     44          1           0        4.196940    2.089249   -0.586060
     45          1           0        5.672121    0.182182    0.108366
     46          1           0        2.219634   -2.418146    0.224398
 ---------------------------------------------------------------------

 SCF Done:  E(RB3LYP) =  -1660.40700082     A.U. after   17 cycles

 Excitation energies and oscillator strengths:

 Excited State   1:      Triplet-A      1.0355 eV 1197.31 nm  f=0.0000  <S**2>=2.000
     100 ->101         0.72545
     100 ->102         0.10374
     100 ->104         0.16762
     100 <-101         0.25943
 This state for optimization and/or second-order correction.
 Total Energy, E(TD-HF/TD-DFT) =  -1660.36894618
 Copying the excited state density for this state as the 1-particle RhoCI density.

 Excited State   2:      Triplet-A      2.8638 eV  432.94 nm  f=0.0000  <S**2>=2.000
      93 ->101        -0.15305
      98 ->101        -0.12837
     100 ->102         0.65029

 Excited State   3:      Singlet-A      2.9339 eV  422.59 nm  f=0.0676  <S**2>=0.000
     100 ->101         0.65075
     100 ->102        -0.22964
     100 ->104        -0.13943

 Excited State   4:      Triplet-A      3.1210 eV  397.26 nm  f=0.0000  <S**2>=2.000
      95 ->101        -0.24166
      98 ->101        -0.13402
      99 ->101         0.62529

 Excited State   5:      Singlet-A      3.3652 eV  368.43 nm  f=0.0137  <S**2>=0.000
      95 ->101        -0.21276
      99 ->101         0.59355
     100 ->102         0.26688

 Excited State   6:      Singlet-A      3.3867 eV  366.09 nm  f=0.0418  <S**2>=0.000
      98 ->101         0.24814
      99 ->101        -0.22738
     100 ->101         0.19674
     100 ->102         0.56322
     100 ->104        -0.10439

 The electronic state is 1-A.
 Alpha  occ. eigenvalues -- -101.57875 -19.21732 -19.17812 -19.15942 -19.15645
 Alpha  occ. eigenvalues --  -19.15332 -14.51418 -14.50729 -14.40150 -10.36389
 Alpha  occ. eigenvalues --  -10.34562 -10.29310 -10.28739 -10.28551 -10.28415
 Alpha  occ. eigenvalues --  -10.28273 -10.26423 -10.25539 -10.24462 -10.24130
 Alpha  occ. eigenvalues --  -10.24082 -10.20948 -10.20374 -10.17936 -10.17738
 Alpha  occ. eigenvalues --  -10.17289  -9.49369  -7.25791  -7.24806  -7.24759
 Alpha  occ. eigenvalues --   -1.14608  -1.13449  -1.13159  -1.08932  -1.03924
 Alpha  occ. eigenvalues --   -0.95843  -0.95480  -0.92318  -0.87919  -0.86896
 Alpha  occ. eigenvalues --   -0.82305  -0.81310  -0.80708  -0.78678  -0.74533
 Alpha  occ. eigenvalues --   -0.73220  -0.69726  -0.69277  -0.67629  -0.66846
 Alpha  occ. eigenvalues --   -0.65075  -0.64174  -0.62484  -0.60916  -0.58108
 Alpha  occ. eigenvalues --   -0.56866  -0.55594  -0.53061  -0.52543  -0.51708
 Alpha  occ. eigenvalues --   -0.50573  -0.49629  -0.49367  -0.48540  -0.48228
 Alpha  occ. eigenvalues --   -0.48139  -0.47765  -0.47390  -0.45689  -0.44521
 Alpha  occ. eigenvalues --   -0.44392  -0.44079  -0.43496  -0.43154  -0.42620
 Alpha  occ. eigenvalues --   -0.42357  -0.41652  -0.41392  -0.41156  -0.40302
 Alpha  occ. eigenvalues --   -0.39654  -0.38853  -0.38075  -0.37894  -0.37628
 Alpha  occ. eigenvalues --   -0.36558  -0.35938  -0.34746  -0.34276  -0.34020
 Alpha  occ. eigenvalues --   -0.32421  -0.31426  -0.30508  -0.30396  -0.29818
 Alpha  occ. eigenvalues --   -0.28876  -0.28417  -0.28091  -0.27394  -0.22691
 Alpha virt. eigenvalues --   -0.11296  -0.07745  -0.04805  -0.03253  -0.00996
 Alpha virt. eigenvalues --   -0.00738   0.00247   0.00920   0.01219   0.01447
 Alpha virt. eigenvalues --    0.01895   0.02195   0.02706   0.03102   0.03378

 Mulliken charges:
               1
     1  C   -0.585708
     2  C    0.128624
     3  O   -0.224212
     4  C    0.548559
     5  O   -0.443715
     6  N   -0.063605
     7  C   -0.144723
     8  C   -0.364162
     9  C   -0.475329
    10  C   -0.375751
    11  C   -0.388828
    12  O   -0.261691
    13  C    0.876330
    14  C    0.084405
    15  C   -0.705356
    16  N   -0.342722
    17  O    0.080853
    18  C    0.178195
    19  C   -0.754573
    20  C    0.003084
    21  C    0.243954
    22  Cl   0.274101
    23  C   -0.376759
    24  C    0.127147
    25  N   -0.561889
    26  O    0.183425
    27  H    0.154630
    28  H    0.158006
    29  H    0.159478
    30  H    0.157421
    31  H    0.156226
    32  H    0.145640
    33  H    0.179946
    34  H    0.177090
    35  H    0.140805
    36  H    0.185949
    37  H    0.175914
    38  H    0.157186
    39  H    0.146898
    40  H    0.174541
    41  H    0.163466
    42  H    0.184909
    43  H    0.187031
    44  H    0.183914
    45  H    0.158951
    46  H    0.192349
 Sum of Mulliken charges =  -0.00000

 Dipole moment (field-independent basis, Debye):
    X=              1.1194    Y=              1.0842    Z=              1.5415  Tot=              2.1920
 Quadrupole moment (field-independent basis, Debye-Ang):
   XX=           -156.5927   YY=           -165.7468   ZZ=           -164.3589
   XY=             -2.3342   XZ=              4.0353   YZ=              8.4963

 Normal termination of Gaussian 16 at Fri Sep 19 15:16:14 2025.
