 Gaussian 16, Revision C.02,
 Gaussian 16:  ES64L-G16RevC.02  7-Dec-2021

 ----------------------------------------------------------
 # td=(50-50,nstates=3) b3lyp/6-31+g(d,p) geom=connectivity
 ----------------------------------------------------------

 -------------------
 Title Card Required
 -------------------
 Symbolic Z-matrix:
 Charge =  0 Multiplicity = 1

                         Standard orientation:
 ---------------------------------------------------------------------
 Center     Atomic      Atomic             Coordinates (Angstroms)
 Number     Number       Type             X           Y           Z
 ---------------------------------------------------------------------
      1          6           0       -5.866896   -0.784167   -0.304340
      2          6           0       -4.384425   -0.985236   -0.085889
      3          6           0       -3.746862   -0.467871    1.051833
      4          6           0       -2.388500   -0.668310    1.317171
      5          6           0       -1.740729   -0.107402    2.557916
      6          6           0       -1.621851   -1.401377    0.382901
      7          7           0       -0.272040   -1.684957    0.671635
      8          6           0        0.699782   -1.285752   -0.055847
      9          6           0        2.104998   -1.634616    0.157992
     10          6           0        2.715406   -2.370831    1.176398
     11          6           0        4.099034   -2.544026    1.142082
     12          6           0        4.852200   -1.986020    0.093729
     13          6           0        4.252081   -1.260882   -0.938128
     14          6           0        2.862812   -1.094041   -0.897855
     15          7           0        2.041121   -0.465369   -1.829270
     16          6           0        0.670678   -0.349198   -1.302562
     17          6           0        0.281638    1.083047   -0.952416
     18          6           0       -0.944115    1.607967   -1.382270
     19          6           0       -1.307262    2.922720   -1.077077
     20          6           0       -0.451019    3.736425   -0.339903
     21          6           0        0.781993    3.219131    0.096322
     22          6           0        1.678342    4.047076    0.853723
     23          7           0        2.404567    4.721155    1.464306
     24          6           0        1.143366    1.897147   -0.207762
     25          6           0       -2.249246   -1.940346   -0.751255
     26          6           0       -3.609910   -1.731405   -0.982384
     27          1           0       -6.186564    0.216562    0.005153
     28          1           0       -6.136440   -0.913724   -1.357161
     29          1           0       -6.456090   -1.506191    0.275487
     30          1           0       -4.331946    0.107328    1.767401
     31          1           0       -2.489517    0.308037    3.238123
     32          1           0       -1.176279   -0.883580    3.086350
     33          1           0       -1.026330    0.688694    2.315590
     34          1           0        2.110226   -2.785492    1.976486
     35          1           0        4.598551   -3.105713    1.924807
     36          1           0        5.929733   -2.124218    0.081300
     37          1           0        4.845398   -0.846919   -1.748045
     38          1           0        2.408020    0.317277   -2.354423
     39          1           0       -0.043089   -0.729607   -2.037674
     40          1           0       -1.623371    0.980359   -1.951571
     41          1           0       -2.261201    3.312018   -1.418645
     42          1           0       -0.721101    4.759509   -0.101349
     43          1           0        2.097862    1.514773    0.140014
     44          1           0       -1.668982   -2.550644   -1.438055
     45          1           0       -4.073513   -2.166480   -1.864769
 ---------------------------------------------------------------------

 SCF Done:  E(RB3LYP) =  -1052.20497920     A.U. after   18 cycles

 Excitation energies and oscillator strengths:

 Excited State   1:      Triplet-A      2.5520 eV  485.84 nm  f=0.0000  <S**2>=2.000
      86 -> 90        -0.10708
      86 -> 91        -0.11259
      89 -> 90         0.51821
      89 -> 91         0.41090
 This state for optimization and/or second-order correction.
 Total Energy, E(TD-HF/TD-DFT) =  -1052.11119672
 Copying the excited state density for this state as the 1-particle RhoCI density.

 Excited State   2:      Triplet-A      3.0300 eV  409.19 nm  f=0.0000  <S**2>=2.000
      86 -> 90         0.13219
      86 -> 91         0.10333
      88 -> 90         0.49074
      88 -> 91         0.38355
      89 -> 90         0.15023
      89 -> 96        -0.12532

 Excited State   3:      Singlet-A      3.1431 eV  394.46 nm  f=0.1332  <S**2>=0.000
      88 -> 90         0.10058
      89 -> 90         0.64144
      89 -> 91         0.24407

 Excited State   4:      Triplet-A      3.1997 eV  387.49 nm  f=0.0000  <S**2>=2.000
      84 -> 90        -0.11049
      85 -> 90         0.15866
      85 -> 91        -0.17767
      86 -> 90        -0.15415
      88 -> 90         0.11692
      88 -> 91         0.10780
      89 -> 90        -0.36902
      89 -> 91         0.41717
      89 -> 92        -0.12332

 Excited State   5:      Singlet-A      3.3728 eV  367.60 nm  f=0.0072  <S**2>=0.000
      89 -> 90        -0.27186
      89 -> 91         0.64039

 Excited State   6:      Singlet-A      3.6193 eV  342.56 nm  f=0.0372  <S**2>=0.000
      88 -> 90         0.65306
      88 -> 91         0.18246
      89 -> 91        -0.13987

 The electronic state is 1-A.
 Alpha  occ. eigenvalues --  -14.37340 -14.35114 -14.34276 -10.26059 -10.25943
 Alpha  occ. eigenvalues --  -10.25518 -10.24875 -10.24256 -10.23623 -10.23185
 Alpha  occ. eigenvalues --  -10.23161 -10.22635 -10.22601 -10.22535 -10.21245
 Alpha  occ. eigenvalues --  -10.20860 -10.20640 -10.20400 -10.20142 -10.20109
 Alpha  occ. eigenvalues --  -10.19977 -10.19502 -10.19342 -10.19064 -10.18959
 Alpha  occ. eigenvalues --  -10.18219  -0.98328  -0.93949  -0.92102  -0.89262
 Alpha  occ. eigenvalues --   -0.86116  -0.85611  -0.80842  -0.79368  -0.78866
 Alpha  occ. eigenvalues --   -0.77384  -0.75872  -0.75068  -0.72531  -0.69283
 Alpha  occ. eigenvalues --   -0.68506  -0.66832  -0.65551  -0.62569  -0.61673
 Alpha  occ. eigenvalues --   -0.60831  -0.58724  -0.57111  -0.55796  -0.54052
 Alpha  occ. eigenvalues --   -0.52065  -0.50987  -0.50346  -0.49067  -0.48359
 Alpha  occ. eigenvalues --   -0.48016  -0.46740  -0.46210  -0.45547  -0.44684
 Alpha  occ. eigenvalues --   -0.44445  -0.43411  -0.42866  -0.42249  -0.41718
 Alpha  occ. eigenvalues --   -0.41250  -0.41103  -0.40261  -0.39927  -0.39019
 Alpha  occ. eigenvalues --   -0.38485  -0.38319  -0.38125  -0.36994  -0.36436
 Alpha  occ. eigenvalues --   -0.36047  -0.35910  -0.35308  -0.34510  -0.34384
 Alpha  occ. eigenvalues --   -0.33434  -0.31679  -0.29799  -0.28233  -0.27781
 Alpha  occ. eigenvalues --   -0.26077  -0.25051  -0.22782  -0.21096
 Alpha virt. eigenvalues --   -0.07117  -0.06304  -0.04806  -0.01632  -0.01334
 Alpha virt. eigenvalues --   -0.00980  -0.00619   0.00013   0.00516   0.00902
 Alpha virt. eigenvalues --    0.01497   0.01592   0.01807   0.02388   0.02620

 Mulliken charges:
               1
     1  C   -0.483753
     2  C    0.357249
     3  C   -0.126550
     4  C    0.626285
     5  C   -0.615450
     6  C   -0.647045
     7  N   -0.039030
     8  C    0.131422
     9  C    0.060992
    10  C    0.347390
    11  C   -0.441852
    12  C   -0.091298
    13  C   -0.405414
    14  C   -0.518144
    15  N   -0.316958
    16  C    0.029626
    17  C   -0.244328
    18  C    0.388135
    19  C   -0.317516
    20  C   -0.061666
    21  C   -0.283099
    22  C    0.059620
    23  N   -0.537090
    24  C    0.397224
    25  C    0.194008
    26  C   -0.302254
    27  H    0.152880
    28  H    0.148194
    29  H    0.165590
    30  H    0.110330
    31  H    0.139530
    32  H    0.171438
    33  H    0.159963
    34  H    0.147811
    35  H    0.128224
    36  H    0.129403
    37  H    0.123491
    38  H    0.302869
    39  H    0.151165
    40  H    0.130256
    41  H    0.137400
    42  H    0.150252
    43  H    0.155368
    44  H    0.119197
    45  H    0.116137
 Sum of Mulliken charges =  -0.00000

 Dipole moment (field-independent basis, Debye):
    X=             -1.9916    Y=             -0.9914    Z=             -3.4945  Tot=              4.1425
 Quadrupole moment (field-independent basis, Debye-Ang):
   XX=           -142.3242   YY=           -172.1722   ZZ=           -150.9206
   XY=            -18.6827   XZ=             -4.3971   YZ=            -10.2064

 Normal termination of Gaussian 16 at Tue Aug  5 23:04:07 2025.
