 Gaussian 16, Revision C.02,
 Gaussian 16:  ES64L-G16RevC.02  7-Dec-2021

 ----------------------------------------------------------
 # td=(50-50,nstates=3) b3lyp/6-31+g(d,p) geom=connectivity
 ----------------------------------------------------------

 -------------------
 Title Card Required
 -------------------
 Symbolic Z-matrix:
 Charge =  0 Multiplicity = 1

                         Standard orientation:
 ---------------------------------------------------------------------
 Center     Atomic      Atomic             Coordinates (Angstroms)
 Number     Number       Type             X           Y           Z
 ---------------------------------------------------------------------
      1          6           0       -2.007567   -4.871652    0.000306
      2          6           0       -1.278813   -3.541247    0.000249
      3          8           0       -2.271067   -2.499193   -0.000059
      4          6           0       -1.899859   -1.207915   -0.000054
      5          6           0       -0.607383   -0.768309   -0.000007
      6          6           0       -0.250207    0.633807   -0.000080
      7          6           0        1.078338    1.010928   -0.000043
      8          6           0        1.535651    2.360476   -0.000228
      9          7           0        2.002545    3.428683   -0.000301
     10          6           0        2.177227   -0.045735    0.000168
     11          8           0        3.433767    0.593801    0.000159
     12          6           0        4.567457   -0.182766    0.000069
     13          6           0        5.776561    0.526956   -0.000217
     14          6           0        6.982772   -0.166669   -0.000321
     15          6           0        7.000111   -1.568038   -0.000143
     16          6           0        5.793398   -2.264675    0.000149
     17          6           0        4.569372   -1.581985    0.000262
     18          6           0       -1.374439    1.581774   -0.000179
     19          8           0       -1.026789    2.873085   -0.000262
     20          6           0       -2.039178    3.903758    0.000163
     21          6           0       -1.329069    5.243452    0.000822
     22          6           0       -2.669404    1.137236   -0.000218
     23          6           0       -3.012805   -0.254280   -0.000133
     24          6           0       -4.350837   -0.647270   -0.000135
     25          6           0       -4.851448   -1.984151   -0.000081
     26          7           0       -5.370455   -3.027683   -0.000077
     27          6           0       -5.374496    0.351433   -0.000191
     28          7           0       -6.194277    1.180099   -0.000233
     29          1           0       -1.276459   -5.686469    0.000586
     30          1           0       -2.640952   -4.968651    0.885627
     31          1           0       -2.640618   -4.968928   -0.885221
     32          1           0       -0.648330   -3.428901   -0.891862
     33          1           0       -0.648627   -3.428698    0.892546
     34          1           0        0.185531   -1.500811    0.000037
     35          1           0        2.075052   -0.684866    0.890922
     36          1           0        2.075170   -0.685115   -0.890421
     37          1           0        5.743190    1.611423   -0.000357
     38          1           0        7.915767    0.389251   -0.000546
     39          1           0        7.943262   -2.105127   -0.000230
     40          1           0        5.790898   -3.350919    0.000298
     41          1           0        3.645683   -2.148802    0.000511
     42          1           0       -2.666351    3.779331   -0.891079
     43          1           0       -2.666474    3.778489    0.891196
     44          1           0       -2.073749    6.045772    0.000789
     45          1           0       -0.698066    5.351026    0.886704
     46          1           0       -0.697446    5.351526   -0.884557
     47          1           0       -3.481750    1.850458   -0.000312
 ---------------------------------------------------------------------

 SCF Done:  E(RB3LYP) =  -1239.66546052     A.U. after   16 cycles

 Excitation energies and oscillator strengths:

 Excited State   1:      Triplet-A      0.9372 eV 1322.89 nm  f=0.0000  <S**2>=2.000
      97 -> 99        -0.23101
      98 -> 99         0.70289
      98 <- 99         0.23973
 This state for optimization and/or second-order correction.
 Total Energy, E(TD-HF/TD-DFT) =  -1239.63101835
 Copying the excited state density for this state as the 1-particle RhoCI density.

 Excited State   2:      Triplet-A      1.9595 eV  632.72 nm  f=0.0000  <S**2>=2.000
      96 -> 99         0.69323

 Excited State   3:      Triplet-A      2.2389 eV  553.78 nm  f=0.0000  <S**2>=2.000
      97 -> 99         0.67014
      98 -> 99         0.21774

 Excited State   4:      Singlet-A      2.2561 eV  549.55 nm  f=0.0013  <S**2>=0.000
      97 -> 99         0.65495
      98 -> 99         0.26261

 Excited State   5:      Singlet-A      2.6546 eV  467.05 nm  f=0.0136  <S**2>=0.000
      96 -> 99         0.68733
      98 -> 99         0.11526

 Excited State   6:      Singlet-A      2.9628 eV  418.47 nm  f=0.9228  <S**2>=0.000
      95 -> 99         0.18511
      96 -> 99        -0.13814
      97 -> 99        -0.24503
      98 -> 99         0.62858
      98 <- 99        -0.13321

 The electronic state is 1-A.
 Alpha  occ. eigenvalues --  -19.22950 -19.22755 -19.21108 -14.36245 -14.35397
 Alpha  occ. eigenvalues --  -14.35324 -10.30963 -10.30940 -10.29385 -10.28430
 Alpha  occ. eigenvalues --  -10.28161 -10.27763 -10.27751 -10.27458 -10.27249
 Alpha  occ. eigenvalues --  -10.26840 -10.25608 -10.25084 -10.24826 -10.23916
 Alpha  occ. eigenvalues --  -10.23109 -10.21316 -10.21263 -10.21013 -10.20569
 Alpha  occ. eigenvalues --  -10.20475 -10.20371 -10.20015  -1.11856  -1.11645
 Alpha  occ. eigenvalues --   -1.09978  -0.93746  -0.92422  -0.91787  -0.90865
 Alpha  occ. eigenvalues --   -0.87616  -0.86644  -0.82489  -0.82120  -0.79879
 Alpha  occ. eigenvalues --   -0.78042  -0.76774  -0.76361  -0.73739  -0.71270
 Alpha  occ. eigenvalues --   -0.68566  -0.66251  -0.66085  -0.63313  -0.62694
 Alpha  occ. eigenvalues --   -0.61836  -0.59509  -0.59023  -0.57451  -0.56049
 Alpha  occ. eigenvalues --   -0.53894  -0.53063  -0.52420  -0.51924  -0.51521
 Alpha  occ. eigenvalues --   -0.50623  -0.49971  -0.49470  -0.47982  -0.47167
 Alpha  occ. eigenvalues --   -0.45681  -0.45323  -0.44393  -0.43753  -0.43009
 Alpha  occ. eigenvalues --   -0.42477  -0.41981  -0.41664  -0.41365  -0.40918
 Alpha  occ. eigenvalues --   -0.40416  -0.39222  -0.38927  -0.38725  -0.38388
 Alpha  occ. eigenvalues --   -0.38180  -0.37809  -0.37806  -0.37725  -0.37530
 Alpha  occ. eigenvalues --   -0.36772  -0.35699  -0.35613  -0.35281  -0.34845
 Alpha  occ. eigenvalues --   -0.33722  -0.33658  -0.33012  -0.32434  -0.27181
 Alpha  occ. eigenvalues --   -0.26493  -0.24485  -0.24200
 Alpha virt. eigenvalues --   -0.14433  -0.04423  -0.02854  -0.02725  -0.02518
 Alpha virt. eigenvalues --   -0.01692  -0.01499  -0.00816   0.00120   0.00430
 Alpha virt. eigenvalues --    0.00741   0.01104   0.01207   0.01446   0.02426

 Mulliken charges:
               1
     1  C   -0.891722
     2  C    0.450912
     3  O   -0.341058
     4  C    0.050976
     5  C   -0.058159
     6  C    0.644820
     7  C    0.190880
     8  C   -0.304568
     9  N   -0.512025
    10  C   -0.357001
    11  O   -0.321635
    12  C   -0.173729
    13  C    0.034600
    14  C   -0.191382
    15  C    0.027876
    16  C   -0.375206
    17  C    0.451838
    18  C    0.078562
    19  O   -0.346410
    20  C    0.427550
    21  C   -0.829667
    22  C   -0.262914
    23  C    0.927637
    24  C    0.578022
    25  C   -0.226919
    26  N   -0.527313
    27  C   -0.486162
    28  N   -0.480389
    29  H    0.149614
    30  H    0.178561
    31  H    0.178553
    32  H    0.140506
    33  H    0.140511
    34  H    0.124436
    35  H    0.160041
    36  H    0.160037
    37  H    0.142640
    38  H    0.132058
    39  H    0.125745
    40  H    0.127574
    41  H    0.108950
    42  H    0.149089
    43  H    0.149060
    44  H    0.152819
    45  H    0.175461
    46  H    0.175496
    47  H    0.151439
 Sum of Mulliken charges =  -0.00000

 Dipole moment (field-independent basis, Debye):
    X=              5.3044    Y=             -2.2690    Z=              0.0014  Tot=              5.7693
 Quadrupole moment (field-independent basis, Debye-Ang):
   XX=           -213.9287   YY=           -159.0008   ZZ=           -166.7581
   XY=            -25.6162   XZ=             -0.0035   YZ=              0.0006

 Normal termination of Gaussian 16 at Tue Aug  5 23:12:03 2025.
