 Gaussian 16, Revision C.02,
 Gaussian 16:  ES64L-G16RevC.02  7-Dec-2021

 ----------------------------------------------------------
 # td=(50-50,nstates=3) b3lyp/6-31+g(d,p) geom=connectivity
 ----------------------------------------------------------

 -------------------
 Title Card Required
 -------------------
 Symbolic Z-matrix:
 Charge =  0 Multiplicity = 1

                         Standard orientation:
 ---------------------------------------------------------------------
 Center     Atomic      Atomic             Coordinates (Angstroms)
 Number     Number       Type             X           Y           Z
 ---------------------------------------------------------------------
      1          6           0        1.742484   -2.125304    0.301012
      2          6           0        2.179977   -0.868848    0.144448
      3          6           0        3.578820   -0.428389   -0.040444
      4          6           0        3.956508    0.890952    0.264277
      5          6           0        5.282107    1.302298    0.113458
      6          6           0        6.251394    0.409377   -0.348481
      7          6           0        5.882485   -0.901838   -0.666261
      8          6           0        4.559547   -1.315334   -0.519819
      9          8           0        1.305203    0.206366    0.179282
     10          6           0       -0.054548    0.001546    0.229667
     11          6           0       -0.749250    1.310874    0.221321
     12          6           0       -0.407974    2.277981   -0.737945
     13          6           0       -1.028648    3.527456   -0.731537
     14          6           0       -1.982574    3.832685    0.243369
     15          6           0       -2.311205    2.882449    1.214446
     16          6           0       -1.697796    1.630022    1.204854
     17          6           0       -0.595258   -1.244346    0.293641
     18          6           0       -2.009847   -1.541967    0.184564
     19          6           0       -2.699788   -2.704582    0.480097
     20          6           0       -4.059006   -2.481373    0.136502
     21          6           0       -4.123975   -1.201947   -0.356976
     22          6           0       -5.199137   -0.430940   -0.854057
     23          7           0       -6.106015    0.179768   -1.258414
     24          8           0       -2.878034   -0.626020   -0.337445
     25          6           0        0.292540   -2.467202    0.475459
     26          1           0        2.463263   -2.934635    0.312657
     27          1           0        3.209576    1.588656    0.624921
     28          1           0        5.555877    2.324358    0.358955
     29          1           0        7.281545    0.731758   -0.467870
     30          1           0        6.624014   -1.600830   -1.042188
     31          1           0        4.284730   -2.327293   -0.799762
     32          1           0        0.336828    2.042883   -1.491519
     33          1           0       -0.767756    4.261992   -1.487780
     34          1           0       -2.465051    4.805639    0.248486
     35          1           0       -3.043367    3.117383    1.981281
     36          1           0       -1.948734    0.897229    1.965498
     37          1           0       -2.281448   -3.604639    0.904718
     38          1           0       -4.889857   -3.164832    0.235158
     39          1           0        0.001738   -3.244349   -0.246851
     40          1           0        0.122269   -2.915887    1.468930
 ---------------------------------------------------------------------

 SCF Done:  E(RB3LYP) =  -1052.56876171     A.U. after   17 cycles

 Excitation energies and oscillator strengths:

 Excited State   1:      Triplet-A      2.2223 eV  557.90 nm  f=0.0000  <S**2>=2.000
      84 -> 86         0.14660
      85 -> 86         0.66171
 This state for optimization and/or second-order correction.
 Total Energy, E(TD-HF/TD-DFT) =  -1052.48709259
 Copying the excited state density for this state as the 1-particle RhoCI density.

 Excited State   2:      Triplet-A      2.8425 eV  436.19 nm  f=0.0000  <S**2>=2.000
      84 -> 86         0.45504
      84 -> 87         0.35618
      85 -> 87        -0.32086

 Excited State   3:      Singlet-A      3.3468 eV  370.46 nm  f=0.1781  <S**2>=0.000
      84 -> 86        -0.11544
      85 -> 86         0.69160

 Excited State   4:      Triplet-A      3.3744 eV  367.43 nm  f=0.0000  <S**2>=2.000
      80 -> 86        -0.23668
      81 -> 86        -0.21178
      82 -> 86         0.17223
      83 -> 90         0.16444
      84 -> 87         0.20087
      84 -> 88         0.14645
      85 -> 88         0.43341

 Excited State   5:      Singlet-A      3.8977 eV  318.10 nm  f=0.1212  <S**2>=0.000
      84 -> 86         0.65631
      85 -> 87         0.22327

 Excited State   6:      Singlet-A      4.1457 eV  299.07 nm  f=0.1436  <S**2>=0.000
      84 -> 86        -0.20209
      85 -> 87         0.65890

 The electronic state is 1-A.
 Alpha  occ. eigenvalues --  -19.24397 -19.21792 -14.35122 -10.28709 -10.28023
 Alpha  occ. eigenvalues --  -10.27859 -10.26856 -10.24358 -10.22726 -10.22373
 Alpha  occ. eigenvalues --  -10.22085 -10.21954 -10.21685 -10.21555 -10.20804
 Alpha  occ. eigenvalues --  -10.20645 -10.20612 -10.20564 -10.20558 -10.20515
 Alpha  occ. eigenvalues --  -10.20486 -10.20456 -10.20375 -10.20320 -10.20300
 Alpha  occ. eigenvalues --   -1.14072  -1.10663  -0.91513  -0.87826  -0.86930
 Alpha  occ. eigenvalues --   -0.85042  -0.83244  -0.82251  -0.78756  -0.77183
 Alpha  occ. eigenvalues --   -0.75942  -0.75790  -0.74028  -0.68944  -0.68677
 Alpha  occ. eigenvalues --   -0.64162  -0.62617  -0.61977  -0.61574  -0.61200
 Alpha  occ. eigenvalues --   -0.59664  -0.57549  -0.55087  -0.53493  -0.52608
 Alpha  occ. eigenvalues --   -0.50938  -0.49489  -0.48997  -0.47726  -0.47060
 Alpha  occ. eigenvalues --   -0.46211  -0.45485  -0.45030  -0.44783  -0.44183
 Alpha  occ. eigenvalues --   -0.43866  -0.43316  -0.43238  -0.42510  -0.42060
 Alpha  occ. eigenvalues --   -0.40866  -0.38914  -0.38267  -0.37713  -0.37395
 Alpha  occ. eigenvalues --   -0.37242  -0.36859  -0.36261  -0.35795  -0.35575
 Alpha  occ. eigenvalues --   -0.34815  -0.34629  -0.32027  -0.30834  -0.27913
 Alpha  occ. eigenvalues --   -0.26692  -0.26544  -0.26336  -0.23613  -0.21486
 Alpha virt. eigenvalues --   -0.07466  -0.04413  -0.03264  -0.02309  -0.01971
 Alpha virt. eigenvalues --   -0.01038  -0.00194   0.00028   0.00348   0.00438
 Alpha virt. eigenvalues --    0.01338   0.02043   0.02147   0.02549   0.03064

 Mulliken charges:
               1
     1  C   -1.200682
     2  C    0.665554
     3  C    0.454070
     4  C   -0.011365
     5  C   -0.172189
     6  C   -0.123177
     7  C   -0.156669
     8  C   -0.185957
     9  O   -0.244577
    10  C    0.430690
    11  C   -0.379695
    12  C    0.101493
    13  C   -0.043059
    14  C   -0.093532
    15  C   -0.037340
    16  C   -0.154530
    17  C    0.370704
    18  C    0.279842
    19  C   -0.363955
    20  C    0.089572
    21  C    0.139595
    22  C    0.506852
    23  N   -0.605303
    24  O   -0.198314
    25  C   -1.099501
    26  H    0.128491
    27  H    0.143070
    28  H    0.128672
    29  H    0.126364
    30  H    0.127168
    31  H    0.117018
    32  H    0.133220
    33  H    0.128686
    34  H    0.127990
    35  H    0.127495
    36  H    0.114629
    37  H    0.145745
    38  H    0.157986
    39  H    0.161379
    40  H    0.163560
 Sum of Mulliken charges =  -0.00000

 Dipole moment (field-independent basis, Debye):
    X=              4.2864    Y=             -2.4646    Z=              1.7850  Tot=              5.2568
 Quadrupole moment (field-independent basis, Debye-Ang):
   XX=           -163.6805   YY=           -124.1144   ZZ=           -148.4307
   XY=              6.9703   XZ=            -15.3467   YZ=             -0.7543

 Normal termination of Gaussian 16 at Tue Aug  5 23:01:21 2025.
