 Gaussian 16, Revision C.02,
 Gaussian 16:  ES64L-G16RevC.02  7-Dec-2021

 ----------------------------------------------------------
 # td=(50-50,nstates=3) b3lyp/6-31+g(d,p) geom=connectivity
 ----------------------------------------------------------

 -------------------
 Title Card Required
 -------------------
 Symbolic Z-matrix:
 Charge =  0 Multiplicity = 1

                         Standard orientation:
 ---------------------------------------------------------------------
 Center     Atomic      Atomic             Coordinates (Angstroms)
 Number     Number       Type             X           Y           Z
 ---------------------------------------------------------------------
      1          6           0        4.154029   -1.272469    0.000059
      2          6           0        2.648843   -0.987648    0.000242
      3          6           0        2.350803    0.517640   -0.000311
      4          6           0        0.884614    0.854167   -0.000144
      5          7           0        0.455722    2.092912    0.000092
      6          8           0       -0.951274    1.953778   -0.000032
      7          6           0       -1.196263    0.633158    0.000102
      8          6           0       -2.643222    0.248543    0.000242
      9         17           0       -2.897206   -1.525258   -0.000130
     10          7           0       -0.123698   -0.095661   -0.000005
     11          1           0        4.349061   -2.349729    0.000458
     12          1           0        4.641835   -0.846939   -0.885083
     13          1           0        4.642192   -0.846220    0.884658
     14          1           0        2.178925   -1.450931    0.875078
     15          1           0        2.178570   -1.451643   -0.874023
     16          1           0        2.810885    0.992497   -0.876063
     17          1           0        2.811247    0.993228    0.874851
     18          1           0       -3.133366    0.658688    0.886123
     19          1           0       -3.133649    0.659110   -0.885284
 ---------------------------------------------------------------------

 SCF Done:  E(RB3LYP) =  -878.973727845     A.U. after   14 cycles

 Excitation energies and oscillator strengths:

 Excited State   1:      Triplet-A      4.1370 eV  299.70 nm  f=0.0000  <S**2>=2.000
      40 -> 43         0.13145
      42 -> 43         0.66794
 This state for optimization and/or second-order correction.
 Total Energy, E(TD-HF/TD-DFT) =  -878.821696033
 Copying the excited state density for this state as the 1-particle RhoCI density.

 Excited State   2:      Triplet-A      5.2878 eV  234.47 nm  f=0.0000  <S**2>=2.000
      36 -> 43         0.10206
      39 -> 43        -0.20099
      41 -> 43         0.65410

 Excited State   3:      Triplet-A      5.7152 eV  216.94 nm  f=0.0000  <S**2>=2.000
      37 -> 43        -0.29239
      38 -> 43         0.55586
      38 -> 47         0.11635
      42 -> 47        -0.23607
      42 -> 50        -0.11728

 Excited State   4:      Singlet-A      5.7409 eV  215.97 nm  f=0.0036  <S**2>=0.000
      39 -> 43        -0.16995
      41 -> 43         0.68337

 Excited State   5:      Singlet-A      6.3789 eV  194.36 nm  f=0.0797  <S**2>=0.000
      40 -> 43        -0.20801
      42 -> 43         0.65794

 Excited State   6:      Singlet-A      6.5710 eV  188.69 nm  f=0.0003  <S**2>=0.000
      40 -> 44        -0.14776
      42 -> 44         0.67799

 The electronic state is 1-A.
 Alpha  occ. eigenvalues -- -101.56138 -19.26651 -14.40355 -14.36166 -10.31935
 Alpha  occ. eigenvalues --  -10.28868 -10.27430 -10.21195 -10.19478 -10.18513
 Alpha  occ. eigenvalues --   -9.47659  -7.24130  -7.23042  -7.23040  -1.18101
 Alpha  occ. eigenvalues --   -0.95889  -0.90809  -0.86716  -0.80313  -0.74049
 Alpha  occ. eigenvalues --   -0.71601  -0.63609  -0.61627  -0.59701  -0.52794
 Alpha  occ. eigenvalues --   -0.52657  -0.48461  -0.46555  -0.46065  -0.45046
 Alpha  occ. eigenvalues --   -0.43563  -0.41150  -0.40846  -0.36455  -0.35585
 Alpha  occ. eigenvalues --   -0.35244  -0.34644  -0.34014  -0.32706  -0.32078
 Alpha  occ. eigenvalues --   -0.30679  -0.29480
 Alpha virt. eigenvalues --   -0.04503  -0.01832  -0.00157   0.01084   0.02169
 Alpha virt. eigenvalues --    0.02634   0.03036   0.03751   0.04665   0.05001
 Alpha virt. eigenvalues --    0.05706   0.06442   0.06982   0.07508   0.07691

 Mulliken charges:
               1
     1  C   -0.720963
     2  C    0.001517
     3  C   -0.262866
     4  C    1.351235
     5  N   -0.566644
     6  O    0.107605
     7  C   -0.234257
     8  C   -1.000569
     9  Cl   0.002818
    10  N   -0.219062
    11  H    0.150283
    12  H    0.145842
    13  H    0.145842
    14  H    0.157951
    15  H    0.157970
    16  H    0.172048
    17  H    0.172044
    18  H    0.219604
    19  H    0.219600
 Sum of Mulliken charges =  -0.00000

 Dipole moment (field-independent basis, Debye):
    X=             -0.0190    Y=              0.0126    Z=              0.0003  Tot=              0.0228
 Quadrupole moment (field-independent basis, Debye-Ang):
   XX=            -58.6012   YY=            -76.4300   ZZ=            -65.5032
   XY=             -5.4927   XZ=             -0.0019   YZ=             -0.0001

 Normal termination of Gaussian 16 at Fri Sep 19 15:18:01 2025.
