 Gaussian 16, Revision C.02,
 Gaussian 16:  ES64L-G16RevC.02  7-Dec-2021

 ----------------------------------------------------------
 # td=(50-50,nstates=3) b3lyp/6-31+g(d,p) geom=connectivity
 ----------------------------------------------------------

 -------------------
 Title Card Required
 -------------------
 Symbolic Z-matrix:
 Charge =  0 Multiplicity = 1

                         Standard orientation:
 ---------------------------------------------------------------------
 Center     Atomic      Atomic             Coordinates (Angstroms)
 Number     Number       Type             X           Y           Z
 ---------------------------------------------------------------------
      1          6           0        4.566531   -2.798884    0.462981
      2          7           0        3.506240   -1.815936    0.665785
      3          6           0        2.151086   -2.345193    0.817414
      4          6           0        1.248791   -1.316867    1.476979
      5          7           0        1.257734   -0.046911    0.742952
      6          6           0        0.213446    0.906889    1.128127
      7          6           0       -0.934276    1.030599    0.110992
      8          7           0       -1.510128   -0.263847   -0.290941
      9          6           0       -2.899204   -0.183073   -0.236283
     10          6           0       -3.829541   -1.127767   -0.687127
     11          6           0       -5.175472   -0.848125   -0.458288
     12         17           0       -6.373073   -2.006666   -1.009313
     13          6           0       -5.620510    0.315072    0.197263
     14          6           0       -4.680879    1.244491    0.631664
     15          6           0       -3.324377    0.997520    0.401184
     16          6           0       -2.136028    1.797626    0.717170
     17          8           0       -2.050374    2.835455    1.351883
     18          6           0        2.426964    0.347363    0.149888
     19          6           0        2.768099    1.523752   -0.484391
     20          6           0        1.953136    2.635278   -0.782909
     21          7           0        1.309074    3.561893   -1.088637
     22          6           0        4.202951    1.457739   -0.949992
     23          6           0        4.633846    0.070993   -0.535725
     24          6           0        5.943066   -0.389286   -0.798273
     25          7           0        7.040147   -0.709010   -1.042531
     26          6           0        3.593989   -0.569898    0.101298
     27          1           0        5.537770   -2.363514    0.696471
     28          1           0        4.394547   -3.638391    1.140476
     29          1           0        4.592016   -3.174937   -0.570030
     30          1           0        2.198983   -3.232301    1.454533
     31          1           0        1.734493   -2.653234   -0.156231
     32          1           0        1.569771   -1.157300    2.518226
     33          1           0        0.221936   -1.691519    1.488122
     34          1           0       -0.195577    0.570860    2.086145
     35          1           0        0.639371    1.899650    1.292339
     36          1           0       -0.589296    1.591288   -0.767278
     37          1           0       -1.100953   -0.718938   -1.097016
     38          1           0       -3.528579   -2.042657   -1.185448
     39          1           0       -6.681547    0.474447    0.348166
     40          1           0       -4.987575    2.158668    1.130553
     41          1           0        4.818934    2.235666   -0.478423
     42          1           0        4.289749    1.599191   -2.035576
 ---------------------------------------------------------------------

 SCF Done:  E(RB3LYP) =  -1542.84951141     A.U. after   17 cycles

 Excitation energies and oscillator strengths:

 Excited State   1:      Triplet-A      2.1926 eV  565.47 nm  f=0.0000  <S**2>=2.000
      95 -> 96        -0.22022
      95 -> 97         0.66187
      95 <- 97         0.10106
 This state for optimization and/or second-order correction.
 Total Energy, E(TD-HF/TD-DFT) =  -1542.76893578
 Copying the excited state density for this state as the 1-particle RhoCI density.

 Excited State   2:      Triplet-A      2.8384 eV  436.82 nm  f=0.0000  <S**2>=2.000
      93 -> 97        -0.28849
      94 -> 96        -0.21330
      94 -> 97         0.57392

 Excited State   3:      Triplet-A      2.9281 eV  423.42 nm  f=0.0000  <S**2>=2.000
      91 -> 96         0.15397
      93 -> 96         0.55474
      93 -> 97         0.11315
      94 -> 96         0.33956
      94 -> 97         0.11933

 Excited State   4:      Singlet-A      3.3604 eV  368.96 nm  f=0.0024  <S**2>=0.000
      92 -> 96        -0.13214
      94 -> 96        -0.17563
      95 -> 96         0.66070

 Excited State   5:      Singlet-A      3.6283 eV  341.72 nm  f=0.0156  <S**2>=0.000
      92 -> 96         0.41894
      92 -> 97         0.10571
      93 -> 96         0.16910
      94 -> 96         0.46930
      95 -> 96         0.20510

 Excited State   6:      Singlet-A      3.7401 eV  331.50 nm  f=0.1322  <S**2>=0.000
      95 -> 96        -0.11262
      95 -> 97         0.69055

 The electronic state is 1-A.
 Alpha  occ. eigenvalues -- -101.57394 -19.16010 -14.40736 -14.40478 -14.39054
 Alpha  occ. eigenvalues --  -14.34259 -14.34209 -10.29651 -10.28780 -10.28324
 Alpha  occ. eigenvalues --  -10.28118 -10.27186 -10.26791 -10.26563 -10.25864
 Alpha  occ. eigenvalues --  -10.25829 -10.24617 -10.23869 -10.23859 -10.23817
 Alpha  occ. eigenvalues --  -10.23636 -10.23271 -10.23025 -10.22933 -10.22402
 Alpha  occ. eigenvalues --  -10.21866  -9.48904  -7.25311  -7.24348  -7.24298
 Alpha  occ. eigenvalues --   -1.05826  -1.02164  -0.99147  -0.97580  -0.91696
 Alpha  occ. eigenvalues --   -0.91279  -0.90984  -0.88884  -0.85655  -0.81615
 Alpha  occ. eigenvalues --   -0.79731  -0.78298  -0.77927  -0.77071  -0.75451
 Alpha  occ. eigenvalues --   -0.70709  -0.68831  -0.68175  -0.66009  -0.65311
 Alpha  occ. eigenvalues --   -0.62175  -0.58898  -0.57625  -0.57416  -0.55651
 Alpha  occ. eigenvalues --   -0.54806  -0.53733  -0.51737  -0.51404  -0.50590
 Alpha  occ. eigenvalues --   -0.49275  -0.48573  -0.47895  -0.47488  -0.47063
 Alpha  occ. eigenvalues --   -0.46987  -0.46126  -0.44897  -0.44001  -0.43584
 Alpha  occ. eigenvalues --   -0.43182  -0.42566  -0.42299  -0.41674  -0.41227
 Alpha  occ. eigenvalues --   -0.41060  -0.39987  -0.39402  -0.39008  -0.38327
 Alpha  occ. eigenvalues --   -0.37563  -0.36989  -0.36847  -0.36672  -0.35251
 Alpha  occ. eigenvalues --   -0.33958  -0.33525  -0.32939  -0.32613  -0.31780
 Alpha  occ. eigenvalues --   -0.27820  -0.27141  -0.24638  -0.24147  -0.22596
 Alpha virt. eigenvalues --   -0.08513  -0.07840  -0.03416  -0.03126  -0.01264
 Alpha virt. eigenvalues --   -0.00611  -0.00518  -0.00285   0.00002   0.00502
 Alpha virt. eigenvalues --    0.00553   0.01010   0.01771   0.01992   0.02061

 Mulliken charges:
               1
     1  C   -0.235203
     2  N   -0.105101
     3  C   -0.233112
     4  C   -0.204931
     5  N    0.163906
     6  C   -0.527812
     7  C    0.266555
     8  N   -0.231892
     9  C   -1.566164
    10  C   -0.584428
    11  C    0.027534
    12  Cl   0.271047
    13  C   -0.134357
    14  C   -0.054414
    15  C    1.472496
    16  C    0.184726
    17  O   -0.441364
    18  C   -0.394877
    19  C    1.230423
    20  C   -0.284018
    21  N   -0.504599
    22  C   -1.011571
    23  C    0.539838
    24  C    0.318949
    25  N   -0.610965
    26  C   -0.145016
    27  H    0.179491
    28  H    0.142488
    29  H    0.166620
    30  H    0.146998
    31  H    0.154626
    32  H    0.162323
    33  H    0.171588
    34  H    0.146979
    35  H    0.192176
    36  H    0.197063
    37  H    0.305375
    38  H    0.140862
    39  H    0.149810
    40  H    0.162837
    41  H    0.188962
    42  H    0.186146
 Sum of Mulliken charges =  -0.00000

 Dipole moment (field-independent basis, Debye):
    X=             -2.7960    Y=             -6.9827    Z=              1.9003  Tot=              7.7581
 Quadrupole moment (field-independent basis, Debye-Ang):
   XX=           -200.9819   YY=           -173.1215   ZZ=           -159.4396
   XY=             -3.7740   XZ=             11.1774   YZ=             -2.7063

 Normal termination of Gaussian 16 at Tue Aug  5 23:19:16 2025.
