 Gaussian 16, Revision C.02,
 Gaussian 16:  ES64L-G16RevC.02  7-Dec-2021

 ----------------------------------------------------------
 # td=(50-50,nstates=3) b3lyp/6-31+g(d,p) geom=connectivity
 ----------------------------------------------------------

 -------------------
 Title Card Required
 -------------------
 Symbolic Z-matrix:
 Charge =  0 Multiplicity = 1

                         Standard orientation:
 ---------------------------------------------------------------------
 Center     Atomic      Atomic             Coordinates (Angstroms)
 Number     Number       Type             X           Y           Z
 ---------------------------------------------------------------------
      1          6           0        6.741645   -2.290465   -0.313458
      2          6           0        5.789687   -1.751246    0.451076
      3          6           0        4.487550   -1.213345   -0.078362
      4          7           0        4.365123    0.213054    0.225311
      5          6           0        3.237500    0.973115    0.187701
      6         16           0        3.272137    2.606863    0.608099
      7          7           0        2.096946    0.327600   -0.196018
      8          6           0        0.801853    0.979189   -0.273783
      9          6           0        0.481687    1.735394   -1.650074
     10          7           0       -0.808972    1.228874   -2.211548
     11          6           0       -1.190413    0.330477   -1.388269
     12          6           0       -2.189764   -0.805930   -1.027809
     13          6           0       -3.627894   -0.466379   -0.719005
     14          6           0       -4.595966   -1.195990   -1.303020
     15          6           0       -6.081203   -1.024253   -1.163759
     16          6           0       -3.895309    0.687337    0.230888
     17          6           0       -4.160943    0.261355    1.690745
     18          6           0       -4.412083    1.457127    2.615717
     19          6           0       -1.155796   -0.994875    0.157261
     20          6           0       -1.084607   -1.965426    1.184282
     21          7           0       -1.044927   -2.786945    2.011496
     22          6           0       -0.361098    0.036584   -0.249926
     23          1           0        7.659640   -2.679659    0.115982
     24          1           0        6.633234   -2.366982   -1.392923
     25          1           0        5.924931   -1.684045    1.530000
     26          1           0        4.419936   -1.397394   -1.161178
     27          1           0        3.661110   -1.749776    0.409432
     28          1           0        5.208323    0.730441    0.431248
     29          1           0        2.156361   -0.614458   -0.556987
     30          1           0        0.758877    1.701393    0.549242
     31          1           0        0.412157    2.816139   -1.501543
     32          1           0        1.279750    1.554860   -2.378076
     33          1           0       -2.143308   -1.634637   -1.743047
     34          1           0       -4.288715   -2.009871   -1.960739
     35          1           0       -6.357169   -0.161606   -0.553216
     36          1           0       -6.548837   -0.907491   -2.149467
     37          1           0       -6.531908   -1.915253   -0.707741
     38          1           0       -3.044988    1.380797    0.215388
     39          1           0       -4.753515    1.267850   -0.127937
     40          1           0       -5.024328   -0.414973    1.714429
     41          1           0       -3.311427   -0.321162    2.066634
     42          1           0       -4.603023    1.129269    3.642913
     43          1           0       -3.548114    2.131842    2.637331
     44          1           0       -5.279448    2.040834    2.284746
 ---------------------------------------------------------------------

 SCF Done:  E(RB3LYP) =  -1278.18169242     A.U. after   15 cycles

 Excitation energies and oscillator strengths:

 Excited State   1:      Triplet-A      2.3883 eV  519.13 nm  f=0.0000  <S**2>=2.000
      80 -> 85         0.57683
      81 -> 85        -0.22776
      82 -> 85         0.16840
      84 -> 85        -0.28400
      80 <- 85         0.12461
 This state for optimization and/or second-order correction.
 Total Energy, E(TD-HF/TD-DFT) =  -1278.09392382
 Copying the excited state density for this state as the 1-particle RhoCI density.

 Excited State   2:      Triplet-A      2.7695 eV  447.67 nm  f=0.0000  <S**2>=2.000
      80 -> 85         0.24978
      84 -> 85         0.64499

 Excited State   3:      Singlet-A      2.7902 eV  444.35 nm  f=0.0251  <S**2>=0.000
      83 -> 85         0.11886
      84 -> 85         0.69550

 Excited State   4:      Triplet-A      2.8795 eV  430.58 nm  f=0.0000  <S**2>=2.000
      81 -> 85         0.20293
      83 -> 85         0.66279

 Excited State   5:      Singlet-A      2.9378 eV  422.03 nm  f=0.0138  <S**2>=0.000
      83 -> 85         0.69153
      84 -> 85        -0.11840

 Excited State   6:      Singlet-A      3.4778 eV  356.51 nm  f=0.0133  <S**2>=0.000
      80 -> 85        -0.11360
      81 -> 85        -0.14758
      82 -> 85         0.67466

 The electronic state is 1-A.
 Alpha  occ. eigenvalues --  -88.83217 -14.40086 -14.39068 -14.36395 -14.35937
 Alpha  occ. eigenvalues --  -10.31854 -10.27101 -10.27006 -10.26451 -10.25398
 Alpha  occ. eigenvalues --  -10.25159 -10.24728 -10.24187 -10.23526 -10.22866
 Alpha  occ. eigenvalues --  -10.21858 -10.21175 -10.20514 -10.19779 -10.19588
 Alpha  occ. eigenvalues --  -10.19270 -10.18229  -7.89334  -5.85910  -5.85250
 Alpha  occ. eigenvalues --   -5.84979  -1.01410  -0.97848  -0.93726  -0.92821
 Alpha  occ. eigenvalues --   -0.88763  -0.83160  -0.82525  -0.78401  -0.77893
 Alpha  occ. eigenvalues --   -0.75277  -0.73411  -0.71483  -0.69817  -0.69237
 Alpha  occ. eigenvalues --   -0.66718  -0.64802  -0.61142  -0.60266  -0.59794
 Alpha  occ. eigenvalues --   -0.58294  -0.54196  -0.53218  -0.52714  -0.51996
 Alpha  occ. eigenvalues --   -0.50945  -0.49553  -0.49011  -0.47837  -0.46620
 Alpha  occ. eigenvalues --   -0.45188  -0.44667  -0.43930  -0.43326  -0.42705
 Alpha  occ. eigenvalues --   -0.42490  -0.41492  -0.41099  -0.40663  -0.39275
 Alpha  occ. eigenvalues --   -0.39038  -0.38704  -0.38411  -0.38053  -0.37900
 Alpha  occ. eigenvalues --   -0.37446  -0.36190  -0.35396  -0.35203  -0.34250
 Alpha  occ. eigenvalues --   -0.33634  -0.33159  -0.30296  -0.29817  -0.27632
 Alpha  occ. eigenvalues --   -0.26733  -0.25467  -0.22705  -0.22018
 Alpha virt. eigenvalues --   -0.09811  -0.03459  -0.02284  -0.01908  -0.01475
 Alpha virt. eigenvalues --   -0.00411   0.00205   0.00366   0.00605   0.01004
 Alpha virt. eigenvalues --    0.01045   0.01878   0.02070   0.02107   0.02700

 Mulliken charges:
               1
     1  C   -0.336029
     2  C    0.188206
     3  C   -0.458573
     4  N   -0.272163
     5  C    0.028830
     6  S   -0.126559
     7  N   -0.143283
     8  C   -0.225940
     9  C   -0.251673
    10  N   -0.229858
    11  C   -0.450339
    12  C    0.604302
    13  C   -0.060501
    14  C    0.511727
    15  C   -0.759683
    16  C   -0.883072
    17  C    0.025094
    18  C   -0.669231
    19  C    0.257517
    20  C    0.410216
    21  N   -0.564472
    22  C   -0.242250
    23  H    0.148686
    24  H    0.139920
    25  H    0.149353
    26  H    0.147790
    27  H    0.156188
    28  H    0.337471
    29  H    0.297271
    30  H    0.200321
    31  H    0.177301
    32  H    0.164630
    33  H    0.143548
    34  H    0.112553
    35  H    0.147174
    36  H    0.160564
    37  H    0.163303
    38  H    0.136243
    39  H    0.141521
    40  H    0.142860
    41  H    0.142060
    42  H    0.149853
    43  H    0.145638
    44  H    0.143488
 Sum of Mulliken charges =  -0.00000

 Dipole moment (field-independent basis, Debye):
    X=              0.6651    Y=             -3.0765    Z=             -2.3758  Tot=              3.9436
 Quadrupole moment (field-independent basis, Debye-Ang):
   XX=           -113.9178   YY=           -158.7839   ZZ=           -152.5056
   XY=            -19.0891   XZ=             -3.3865   YZ=             10.8419

 Normal termination of Gaussian 16 at Fri Aug  8 20:32:56 2025.
