 Gaussian 16, Revision C.02,
 Gaussian 16:  ES64L-G16RevC.02  7-Dec-2021

 ----------------------------------------------------------
 # td=(50-50,nstates=3) b3lyp/6-31+g(d,p) geom=connectivity
 ----------------------------------------------------------

 -------------------
 Title Card Required
 -------------------
 Symbolic Z-matrix:
 Charge =  0 Multiplicity = 1

                         Standard orientation:
 ---------------------------------------------------------------------
 Center     Atomic      Atomic             Coordinates (Angstroms)
 Number     Number       Type             X           Y           Z
 ---------------------------------------------------------------------
      1          6           0       -2.722703    2.222424    1.491084
      2          6           0       -2.912965    1.641367    0.290851
      3          6           0       -3.278336    2.450897   -0.845316
      4          7           0       -3.559125    3.110023   -1.761270
      5          6           0       -2.762038    0.195922    0.049798
      6          6           0       -1.801238   -0.682983    0.392167
      7          6           0       -0.520639   -0.429578    1.147895
      8          6           0       -0.553768   -1.109655    2.534442
      9          6           0        0.695002   -0.881905    0.298311
     10          6           0        2.104597   -0.499778    0.848153
     11          6           0        2.302794    0.984794    0.912028
     12          6           0        3.329943    1.616178    0.317198
     13          6           0        4.347836    0.890477   -0.454924
     14          8           0        5.270190    1.465954   -1.036195
     15          6           0        4.222851   -0.595631   -0.522074
     16          7           0        5.259050   -1.215040   -1.188859
     17          6           0        3.173823   -1.214975    0.073689
     18          6           0       -2.214463   -2.020718   -0.172310
     19          6           0       -3.529164   -1.716159   -0.877393
     20          8           0       -4.266027   -2.444770   -1.482076
     21          8           0       -3.795655   -0.368695   -0.708644
     22          1           0       -2.493623    1.627106    2.367540
     23          1           0       -2.807591    3.296521    1.612753
     24          1           0       -0.450547    0.652625    1.302629
     25          1           0        0.327383   -0.850876    3.129187
     26          1           0       -1.437722   -0.802022    3.102053
     27          1           0       -0.581353   -2.201355    2.440188
     28          1           0        0.668393   -1.974427    0.197610
     29          1           0        0.604799   -0.468468   -0.712957
     30          1           0        2.150361   -0.866642    1.888777
     31          1           0        1.575170    1.564771    1.475423
     32          1           0        3.454960    2.693606    0.371254
     33          1           0        5.106012   -2.137020   -1.567779
     34          1           0        5.829091   -0.592932   -1.748522
     35          1           0        3.084205   -2.298951    0.014580
     36          1           0       -1.503545   -2.436814   -0.895606
     37          1           0       -2.382729   -2.793977    0.587496
 ---------------------------------------------------------------------

 SCF Done:  E(RB3LYP) =  -954.503616127     A.U. after   17 cycles

 Excitation energies and oscillator strengths:

 Excited State   1:      Triplet-A      2.3847 eV  519.91 nm  f=0.0000  <S**2>=2.000
      75 -> 76        -0.10790
      75 -> 77         0.66116
      75 -> 80         0.19754
 This state for optimization and/or second-order correction.
 Total Energy, E(TD-HF/TD-DFT) =  -954.415979049
 Copying the excited state density for this state as the 1-particle RhoCI density.

 Excited State   2:      Triplet-A      2.7268 eV  454.68 nm  f=0.0000  <S**2>=2.000
      70 -> 76         0.26940
      74 -> 76         0.60111
      74 -> 78        -0.10166
      75 -> 76        -0.13598

 Excited State   3:      Triplet-A      3.1533 eV  393.18 nm  f=0.0000  <S**2>=2.000
      73 -> 76        -0.10063
      73 -> 77         0.68818

 Excited State   4:      Singlet-A      3.3045 eV  375.19 nm  f=0.0124  <S**2>=0.000
      75 -> 76         0.69584
      75 -> 77        -0.11789

 Excited State   5:      Singlet-A      3.4489 eV  359.49 nm  f=0.0398  <S**2>=0.000
      75 -> 76         0.12142
      75 -> 77         0.68759

 Excited State   6:      Singlet-A      3.6433 eV  340.30 nm  f=0.0002  <S**2>=0.000
      73 -> 76        -0.11147
      73 -> 77         0.69103

 The electronic state is 1-A.
 Alpha  occ. eigenvalues --  -19.23456 -19.17293 -19.15328 -14.36300 -14.35734
 Alpha  occ. eigenvalues --  -10.34919 -10.29399 -10.28856 -10.28200 -10.25386
 Alpha  occ. eigenvalues --  -10.25196 -10.24950 -10.24331 -10.24101 -10.24068
 Alpha  occ. eigenvalues --  -10.23702 -10.23361 -10.22601 -10.21688 -10.21640
 Alpha  occ. eigenvalues --  -10.20963  -1.14304  -1.06349  -1.04995  -0.93037
 Alpha  occ. eigenvalues --   -0.93009  -0.88285  -0.86586  -0.85071  -0.80988
 Alpha  occ. eigenvalues --   -0.77331  -0.75617  -0.74967  -0.70331  -0.68859
 Alpha  occ. eigenvalues --   -0.65027  -0.63270  -0.62733  -0.60260  -0.58803
 Alpha  occ. eigenvalues --   -0.56369  -0.53876  -0.53635  -0.52083  -0.50654
 Alpha  occ. eigenvalues --   -0.50113  -0.49365  -0.48350  -0.47428  -0.47189
 Alpha  occ. eigenvalues --   -0.45813  -0.45205  -0.44901  -0.43960  -0.43682
 Alpha  occ. eigenvalues --   -0.42943  -0.42473  -0.41699  -0.41438  -0.40578
 Alpha  occ. eigenvalues --   -0.40235  -0.38581  -0.38169  -0.37901  -0.37762
 Alpha  occ. eigenvalues --   -0.36742  -0.36238  -0.35436  -0.34726  -0.31572
 Alpha  occ. eigenvalues --   -0.30286  -0.29117  -0.27033  -0.26515  -0.22953
 Alpha virt. eigenvalues --   -0.09327  -0.08179  -0.04156  -0.02471  -0.01789
 Alpha virt. eigenvalues --   -0.01416  -0.00941  -0.00421  -0.00029   0.01007
 Alpha virt. eigenvalues --    0.01510   0.01740   0.02092   0.02806   0.03156

 Mulliken charges:
               1
     1  C   -0.309138
     2  C    0.331221
     3  C   -0.035716
     4  N   -0.490167
     5  C    0.111408
     6  C    0.399482
     7  C    0.207224
     8  C   -0.519008
     9  C   -1.387830
    10  C    0.488908
    11  C   -0.183109
    12  C    0.111192
    13  C   -0.158236
    14  O   -0.513001
    15  C    0.808962
    16  N   -0.632893
    17  C   -0.686437
    18  C   -0.081759
    19  C    0.518322
    20  O   -0.462365
    21  O   -0.272373
    22  H    0.157262
    23  H    0.169857
    24  H    0.119826
    25  H    0.148738
    26  H    0.150511
    27  H    0.153666
    28  H    0.146608
    29  H    0.166872
    30  H    0.158118
    31  H    0.123818
    32  H    0.142790
    33  H    0.288019
    34  H    0.320622
    35  H    0.109680
    36  H    0.200679
    37  H    0.198246
 Sum of Mulliken charges =  -0.00000

 Dipole moment (field-independent basis, Debye):
    X=              2.0625    Y=             -3.1861    Z=              6.1844  Tot=              7.2562
 Quadrupole moment (field-independent basis, Debye-Ang):
   XX=           -172.6724   YY=           -128.4525   ZZ=           -125.5566
   XY=            -13.6685   XZ=            -20.8738   YZ=             11.4361

 Normal termination of Gaussian 16 at Tue Aug  5 23:19:55 2025.
