 Gaussian 16, Revision C.02,
 Gaussian 16:  ES64L-G16RevC.02  7-Dec-2021

 ----------------------------------------------------------
 # td=(50-50,nstates=3) b3lyp/6-31+g(d,p) geom=connectivity
 ----------------------------------------------------------

 -------------------
 Title Card Required
 -------------------
 Symbolic Z-matrix:
 Charge =  0 Multiplicity = 1

                         Standard orientation:
 ---------------------------------------------------------------------
 Center     Atomic      Atomic             Coordinates (Angstroms)
 Number     Number       Type             X           Y           Z
 ---------------------------------------------------------------------
      1          6           0        2.370108    3.619973   -1.224818
      2          6           0        2.190838    2.187827   -0.775379
      3          6           0        3.125428    1.566040    0.058643
      4          6           0        3.017260    0.237283    0.513831
      5          6           0        4.102265   -0.318296    1.413155
      6          6           0        1.886272   -0.470632    0.082771
      7          6           0        0.927785    0.132638   -0.752824
      8          6           0        1.071927    1.441956   -1.183196
      9          6           0       -0.158092   -0.866632   -1.070134
     10          6           0       -1.590133   -0.494211   -0.716338
     11          6           0       -2.651909   -1.145631   -1.361467
     12          6           0       -3.977386   -0.860850   -1.027739
     13          6           0       -4.269222    0.079962   -0.042118
     14          6           0       -3.213018    0.735304    0.612136
     15          6           0       -3.492902    1.710564    1.628368
     16          7           0       -3.719511    2.502384    2.450968
     17          6           0       -1.879356    0.447042    0.275141
     18          6           0        0.307692   -2.121725   -0.297129
     19          8           0       -0.256344   -3.204495   -0.264339
     20          7           0        1.490372   -1.809224    0.346162
     21          6           0        2.172730   -2.804359    1.160456
     22          1           0        3.301864    4.043829   -0.839770
     23          1           0        2.395864    3.695644   -2.318219
     24          1           0        1.546630    4.254203   -0.875868
     25          1           0        3.992883    2.137986    0.380238
     26          1           0        3.716679   -0.624252    2.390821
     27          1           0        4.607802   -1.182805    0.971429
     28          1           0        4.862858    0.446424    1.590107
     29          1           0        0.319975    1.890620   -1.828221
     30          1           0       -0.129058   -1.139744   -2.133455
     31          1           0       -2.436432   -1.888723   -2.123163
     32          1           0       -4.785311   -1.375208   -1.538680
     33          1           0       -5.295421    0.311407    0.222313
     34          1           0       -1.077755    0.966568    0.788526
     35          1           0        1.560985   -3.707038    1.131710
     36          1           0        3.164057   -3.032944    0.760225
     37          1           0        2.267370   -2.469652    2.196650
 ---------------------------------------------------------------------

 SCF Done:  E(RB3LYP) =  -880.351959593     A.U. after   17 cycles

 Excitation energies and oscillator strengths:

 Excited State   1:      Triplet-A      3.3434 eV  370.83 nm  f=0.0000  <S**2>=2.000
      71 -> 76         0.11851
      72 -> 76        -0.21398
      72 -> 77        -0.13313
      73 -> 74         0.11292
      73 -> 75        -0.11544
      73 -> 76         0.41652
      73 -> 77        -0.40681
 This state for optimization and/or second-order correction.
 Total Energy, E(TD-HF/TD-DFT) =  -880.229092325
 Copying the excited state density for this state as the 1-particle RhoCI density.

 Excited State   2:      Triplet-A      3.3835 eV  366.43 nm  f=0.0000  <S**2>=2.000
      69 -> 75        -0.20085
      70 -> 74         0.50209
      71 -> 74        -0.31571
      71 -> 75         0.14384
      72 -> 74        -0.15392
      72 -> 75         0.16346

 Excited State   3:      Triplet-A      3.6530 eV  339.41 nm  f=0.0000  <S**2>=2.000
      73 -> 74         0.51710
      73 -> 75         0.16875
      73 -> 76         0.29612
      73 -> 77         0.29217

 Excited State   4:      Singlet-A      3.8155 eV  324.95 nm  f=0.0005  <S**2>=0.000
      73 -> 74         0.70506

 Excited State   5:      Singlet-A      4.4010 eV  281.72 nm  f=0.0189  <S**2>=0.000
      73 -> 75         0.61417
      73 -> 76         0.31230

 Excited State   6:      Singlet-A      4.4664 eV  277.59 nm  f=0.0207  <S**2>=0.000
      72 -> 77        -0.10467
      73 -> 75        -0.33676
      73 -> 76         0.59000
      73 -> 77         0.12842

 The electronic state is 1-A.
 Alpha  occ. eigenvalues --  -19.14253 -14.39830 -14.34586 -10.30708 -10.24817
 Alpha  occ. eigenvalues --  -10.24810 -10.23759 -10.23549 -10.23193 -10.23132
 Alpha  occ. eigenvalues --  -10.22505 -10.22403 -10.22072 -10.21934 -10.21872
 Alpha  occ. eigenvalues --  -10.21412 -10.21126 -10.20558 -10.20393 -10.20350
 Alpha  occ. eigenvalues --  -10.19519  -1.06049  -0.97862  -0.91583  -0.88959
 Alpha  occ. eigenvalues --   -0.87265  -0.83289  -0.79664  -0.79064  -0.77855
 Alpha  occ. eigenvalues --   -0.74131  -0.72403  -0.70296  -0.68746  -0.66164
 Alpha  occ. eigenvalues --   -0.63629  -0.60298  -0.59877  -0.57861  -0.55749
 Alpha  occ. eigenvalues --   -0.52800  -0.51265  -0.49746  -0.49373  -0.48563
 Alpha  occ. eigenvalues --   -0.47862  -0.45849  -0.45211  -0.45125  -0.44358
 Alpha  occ. eigenvalues --   -0.43674  -0.43070  -0.42805  -0.42580  -0.41082
 Alpha  occ. eigenvalues --   -0.40608  -0.40312  -0.39652  -0.38949  -0.38397
 Alpha  occ. eigenvalues --   -0.37784  -0.37143  -0.36571  -0.36365  -0.35119
 Alpha  occ. eigenvalues --   -0.35110  -0.33805  -0.30826  -0.28890  -0.27291
 Alpha  occ. eigenvalues --   -0.26770  -0.25869  -0.22347
 Alpha virt. eigenvalues --   -0.06276  -0.03873  -0.03414  -0.02412  -0.00926
 Alpha virt. eigenvalues --    0.00008   0.00654   0.00939   0.01460   0.01727
 Alpha virt. eigenvalues --    0.02242   0.02394   0.02755   0.03220   0.03668

 Mulliken charges:
               1
     1  C   -0.499836
     2  C    0.333655
     3  C   -1.276109
     4  C    0.348967
     5  C   -0.596288
     6  C    0.469745
     7  C   -0.042217
     8  C    0.012167
     9  C    0.298645
    10  C    0.535384
    11  C    0.033961
    12  C   -0.061209
    13  C   -0.136530
    14  C    0.233509
    15  C   -0.194473
    16  N   -0.531311
    17  C   -0.427105
    18  C   -0.197004
    19  O   -0.484703
    20  N   -0.081229
    21  C   -0.172594
    22  H    0.148605
    23  H    0.163286
    24  H    0.167071
    25  H    0.114038
    26  H    0.162888
    27  H    0.162349
    28  H    0.151661
    29  H    0.123007
    30  H    0.179691
    31  H    0.131231
    32  H    0.138199
    33  H    0.148266
    34  H    0.148853
    35  H    0.190790
    36  H    0.151931
    37  H    0.152712
 Sum of Mulliken charges =  -0.00000

 Dipole moment (field-independent basis, Debye):
    X=              3.9297    Y=             -0.8123    Z=             -2.7177  Tot=              4.8464
 Quadrupole moment (field-independent basis, Debye-Ang):
   XX=           -114.6318   YY=           -136.8505   ZZ=           -127.5832
   XY=              8.2199   XZ=             17.7751   YZ=            -10.6466

 Normal termination of Gaussian 16 at Tue Aug  5 23:12:37 2025.
