 Gaussian 16, Revision C.02,
 Gaussian 16:  ES64L-G16RevC.02  7-Dec-2021

 ----------------------------------------------------------
 # td=(50-50,nstates=3) b3lyp/6-31+g(d,p) geom=connectivity
 ----------------------------------------------------------

 -------------------
 Title Card Required
 -------------------
 Symbolic Z-matrix:
 Charge =  0 Multiplicity = 1

                         Standard orientation:
 ---------------------------------------------------------------------
 Center     Atomic      Atomic             Coordinates (Angstroms)
 Number     Number       Type             X           Y           Z
 ---------------------------------------------------------------------
      1          6           0        4.140145   -4.440438    1.157342
      2          6           0        3.700009   -3.015779    0.807571
      3          6           0        4.781676   -2.079357    0.285057
      4          6           0        6.119301   -2.490146    0.173019
      5          6           0        7.094027   -1.619574   -0.309978
      6          6           0        6.764440   -0.319624   -0.694620
      7          6           0        5.434088    0.103205   -0.588668
      8          8           0        5.007351    1.356490   -0.937437
      9          6           0        5.957141    2.287182   -1.440013
     10          6           0        4.436540   -0.767015   -0.100188
     11          6           0        3.026694   -0.271348   -0.004127
     12          6           0        2.538701    0.280675    1.188983
     13          6           0        1.222510    0.734633    1.283194
     14          6           0        0.347046    0.652849    0.182604
     15         14           0       -1.408377    1.282834    0.339877
     16          6           0       -1.643245    3.161513   -0.024223
     17          6           0       -1.065805    3.489805   -1.415856
     18          6           0       -3.148473    3.523606    0.020193
     19          6           0       -0.928509    3.879332    1.101047
     20          6           0        0.221931    4.560103    1.025688
     21          6           0       -2.222209    0.736682    1.999049
     22          8           0       -2.001313    1.068814    3.146804
     23          6           0       -3.354035   -0.300050    1.681970
     24          8           0       -3.996237   -0.841893    2.558438
     25          6           0       -3.543502   -0.520421    0.204830
     26          6           0       -4.619400   -1.414284   -0.269287
     27          6           0       -4.865103   -2.642922    0.374324
     28          6           0       -5.865502   -3.494614   -0.092310
     29          6           0       -6.651971   -3.127069   -1.187612
     30          6           0       -6.430188   -1.901071   -1.820684
     31          6           0       -5.420223   -1.053259   -1.368985
     32          6           0       -2.659197    0.172754   -0.589415
     33          6           0       -2.635548    0.059952   -2.007851
     34          7           0       -2.519037    0.040437   -3.169163
     35          6           0        0.842554    0.098073   -1.013620
     36          6           0        2.159873   -0.353332   -1.103693
     37          1           0        3.279763   -5.017998    1.509996
     38          1           0        4.556348   -4.963925    0.289746
     39          1           0        4.892942   -4.452982    1.952940
     40          1           0        3.239574   -2.559092    1.693061
     41          1           0        2.893686   -3.064252    0.064719
     42          1           0        6.404013   -3.494978    0.462277
     43          1           0        8.124829   -1.953099   -0.390477
     44          1           0        7.534455    0.344184   -1.068066
     45          1           0        5.395832    3.199066   -1.648040
     46          1           0        6.738578    2.502369   -0.700331
     47          1           0        6.420954    1.926616   -2.366793
     48          1           0        3.197140    0.357032    2.049906
     49          1           0        0.878888    1.153013    2.225463
     50          1           0       -1.134809    4.569540   -1.600405
     51          1           0       -0.014696    3.201542   -1.511977
     52          1           0       -1.625352    2.981643   -2.207849
     53          1           0       -3.274469    4.596119   -0.171635
     54          1           0       -3.596400    3.312592    0.997839
     55          1           0       -3.718535    2.980326   -0.740756
     56          1           0       -1.423915    3.816670    2.070946
     57          1           0        0.641880    5.035194    1.907114
     58          1           0        0.782536    4.666994    0.102281
     59          1           0       -4.270239   -2.931370    1.232167
     60          1           0       -6.034588   -4.444445    0.405972
     61          1           0       -7.436136   -3.789373   -1.542495
     62          1           0       -7.043226   -1.602717   -2.665689
     63          1           0       -5.266128   -0.099194   -1.861476
     64          1           0        0.204656    0.012759   -1.889216
     65          1           0        2.521971   -0.772639   -2.038249
 ---------------------------------------------------------------------

 SCF Done:  E(RB3LYP) =  -1768.72097106     A.U. after   20 cycles

 Excitation energies and oscillator strengths:

 Excited State   1:      Triplet-A      1.2233 eV 1013.55 nm  f=0.0000  <S**2>=2.000
     129 ->131         0.64758
     129 ->132        -0.21706
 This state for optimization and/or second-order correction.
 Total Energy, E(TD-HF/TD-DFT) =  -1768.67601687
 Copying the excited state density for this state as the 1-particle RhoCI density.

 Excited State   2:      Singlet-A      1.6894 eV  733.91 nm  f=0.0005  <S**2>=0.000
     129 ->131         0.67646
     129 ->132        -0.13754

 Excited State   3:      Triplet-A      2.1498 eV  576.73 nm  f=0.0000  <S**2>=2.000
     120 ->131        -0.13077
     122 ->131         0.22647
     123 ->131        -0.18553
     125 ->131        -0.13557
     126 ->131        -0.24466
     127 ->131         0.51039
     127 ->132         0.13653

 Excited State   4:      Triplet-A      2.3484 eV  527.94 nm  f=0.0000  <S**2>=2.000
     130 ->131         0.70597

 Excited State   5:      Singlet-A      2.3488 eV  527.86 nm  f=0.0001  <S**2>=0.000
     130 ->131         0.70577

 Excited State   6:      Singlet-A      2.8221 eV  439.34 nm  f=0.0141  <S**2>=0.000
     126 ->131         0.24434
     127 ->131         0.59815
     128 ->131         0.22408
     129 ->131        -0.13613

 The electronic state is 1-A.
 Alpha  occ. eigenvalues --  -66.16672 -19.19172 -19.18882 -19.18316 -14.36285
 Alpha  occ. eigenvalues --  -10.30492 -10.29019 -10.26227 -10.25934 -10.25558
 Alpha  occ. eigenvalues --  -10.25477 -10.25001 -10.22794 -10.22012 -10.21551
 Alpha  occ. eigenvalues --  -10.21540 -10.21320 -10.21291 -10.21064 -10.20981
 Alpha  occ. eigenvalues --  -10.20956 -10.20890 -10.20873 -10.20686 -10.20368
 Alpha  occ. eigenvalues --  -10.20279 -10.20278 -10.20268 -10.20012 -10.19978
 Alpha  occ. eigenvalues --  -10.19617 -10.19433 -10.19425 -10.19371 -10.18885
 Alpha  occ. eigenvalues --  -10.18338  -5.31116  -3.67142  -3.66970  -3.66853
 Alpha  occ. eigenvalues --   -1.08650  -1.07503  -1.06333  -0.93018  -0.88617
 Alpha  occ. eigenvalues --   -0.87789  -0.85712  -0.85002  -0.83230  -0.79417
 Alpha  occ. eigenvalues --   -0.78572  -0.77009  -0.76571  -0.75854  -0.75127
 Alpha  occ. eigenvalues --   -0.74716  -0.72656  -0.72357  -0.70506  -0.70296
 Alpha  occ. eigenvalues --   -0.67032  -0.64494  -0.63516  -0.62704  -0.62528
 Alpha  occ. eigenvalues --   -0.61819  -0.60583  -0.58976  -0.57720  -0.56607
 Alpha  occ. eigenvalues --   -0.54723  -0.54181  -0.53776  -0.53030  -0.51082
 Alpha  occ. eigenvalues --   -0.49975  -0.49535  -0.48775  -0.48269  -0.47929
 Alpha  occ. eigenvalues --   -0.47242  -0.47000  -0.46676  -0.46277  -0.46147
 Alpha  occ. eigenvalues --   -0.45849  -0.45749  -0.45224  -0.45087  -0.44525
 Alpha  occ. eigenvalues --   -0.44150  -0.43437  -0.43338  -0.43200  -0.42441
 Alpha  occ. eigenvalues --   -0.41912  -0.41071  -0.40197  -0.39789  -0.39584
 Alpha  occ. eigenvalues --   -0.39274  -0.38718  -0.38624  -0.38474  -0.38356
 Alpha  occ. eigenvalues --   -0.38280  -0.37646  -0.37419  -0.36866  -0.36507
 Alpha  occ. eigenvalues --   -0.36028  -0.35892  -0.35559  -0.35485  -0.35160
 Alpha  occ. eigenvalues --   -0.34895  -0.33438  -0.32568  -0.32383  -0.32343
 Alpha  occ. eigenvalues --   -0.31581  -0.30969  -0.27242  -0.27090  -0.26533
 Alpha  occ. eigenvalues --   -0.26219  -0.25764  -0.24994  -0.23975  -0.22924
 Alpha virt. eigenvalues --   -0.13106  -0.09020  -0.03857  -0.02831  -0.02535
 Alpha virt. eigenvalues --   -0.02107  -0.02027  -0.01740  -0.00563  -0.00149
 Alpha virt. eigenvalues --   -0.00040   0.00398   0.00452   0.00825   0.00960

 Mulliken charges:
               1
     1  C   -0.879430
     2  C    0.069421
     3  C    0.578528
     4  C   -0.236064
     5  C   -0.709443
     6  C    0.257579
     7  C    0.143046
     8  O   -0.261691
     9  C   -0.091314
    10  C   -0.237975
    11  C   -0.138715
    12  C   -0.148710
    13  C    0.117697
    14  C   -0.182124
    15  Si   0.801279
    16  C    0.001410
    17  C   -0.645778
    18  C   -0.389295
    19  C    0.030744
    20  C   -0.271667
    21  C   -0.111524
    22  O   -0.191777
    23  C   -0.229321
    24  O   -0.360876
    25  C    0.604232
    26  C    0.508662
    27  C   -0.344911
    28  C   -0.004766
    29  C   -0.288695
    30  C   -0.000638
    31  C   -0.691254
    32  C    0.417607
    33  C   -0.797820
    34  N   -0.340243
    35  C    0.071675
    36  C   -0.184937
    37  H    0.147812
    38  H    0.154645
    39  H    0.153372
    40  H    0.165208
    41  H    0.163582
    42  H    0.119555
    43  H    0.123996
    44  H    0.120084
    45  H    0.148701
    46  H    0.142804
    47  H    0.143240
    48  H    0.122432
    49  H    0.129400
    50  H    0.164542
    51  H    0.168967
    52  H    0.168245
    53  H    0.161002
    54  H    0.158123
    55  H    0.156372
    56  H    0.143715
    57  H    0.130637
    58  H    0.129511
    59  H    0.143197
    60  H    0.132753
    61  H    0.131419
    62  H    0.131709
    63  H    0.128780
    64  H    0.128975
    65  H    0.124312
 Sum of Mulliken charges =  -0.00000

 Dipole moment (field-independent basis, Debye):
    X=              2.4119    Y=              0.7476    Z=             -1.8627  Tot=              3.1378
 Quadrupole moment (field-independent basis, Debye-Ang):
   XX=           -192.7269   YY=           -203.6678   ZZ=           -243.9661
   XY=              9.4956   XZ=              7.1925   YZ=             -4.4587

 Normal termination of Gaussian 16 at Tue Aug  5 23:43:55 2025.
