 Gaussian 16, Revision C.02,
 Gaussian 16:  ES64L-G16RevC.02  7-Dec-2021

 ----------------------------------------------------------
 # td=(50-50,nstates=3) b3lyp/6-31+g(d,p) geom=connectivity
 ----------------------------------------------------------

 -------------------
 Title Card Required
 -------------------
 Symbolic Z-matrix:
 Charge =  0 Multiplicity = 1

                         Standard orientation:
 ---------------------------------------------------------------------
 Center     Atomic      Atomic             Coordinates (Angstroms)
 Number     Number       Type             X           Y           Z
 ---------------------------------------------------------------------
      1          6           0       -5.239755   -3.361986   -0.412262
      2          7           0       -5.428874   -1.953572   -0.075942
      3          6           0       -6.791829   -1.433425   -0.188072
      4          6           0       -6.938827   -0.142902    0.600550
      5          7           0       -5.953434    0.844096    0.160185
      6          6           0       -6.222635    2.234939    0.517059
      7          6           0       -4.675572    0.403193   -0.030095
      8          6           0       -3.490559    1.084947   -0.157941
      9          6           0       -3.233729    2.470485   -0.076455
     10          7           0       -2.972241    3.608051   -0.030676
     11          6           0       -2.358255    0.116720   -0.439703
     12          8           0       -1.340577    0.267156    0.537509
     13          6           0       -0.021577   -0.071327    0.098689
     14          6           0        0.941282    0.296613    1.230384
     15          6           0        2.375699   -0.028746    0.884644
     16          6           0        2.939355   -1.242790    1.307734
     17          6           0        4.251382   -1.604298    1.007690
     18          6           0        5.031242   -0.726951    0.257651
     19         35           0        6.825976   -1.191354   -0.179277
     20          6           0        4.518965    0.488658   -0.186266
     21          6           0        3.201860    0.819946    0.133162
     22         35           0        2.553810    2.508919   -0.485634
     23          6           0       -3.064917   -1.236545   -0.436786
     24          6           0       -2.351881   -2.431094   -0.666068
     25          7           0       -1.712007   -3.390663   -0.858471
     26          6           0       -4.406399   -1.057668   -0.193172
     27          1           0       -4.333714   -3.746714    0.054525
     28          1           0       -6.092284   -3.927201   -0.029031
     29          1           0       -5.167661   -3.519296   -1.497425
     30          1           0       -7.476124   -2.182335    0.220133
     31          1           0       -7.063592   -1.264896   -1.242534
     32          1           0       -6.839157   -0.346109    1.678937
     33          1           0       -7.936123    0.270764    0.426549
     34          1           0       -7.291905    2.422738    0.396251
     35          1           0       -5.937114    2.454821    1.555154
     36          1           0       -5.677483    2.909456   -0.142025
     37          1           0       -1.929742    0.310061   -1.437184
     38          1           0        0.050133   -1.142823   -0.127182
     39          1           0        0.221547    0.492142   -0.813353
     40          1           0        0.825337    1.360786    1.455396
     41          1           0        0.648541   -0.260761    2.125857
     42          1           0        2.327441   -1.922852    1.894314
     43          1           0        4.656369   -2.549382    1.350649
     44          1           0        5.130410    1.167586   -0.767312
 ---------------------------------------------------------------------

 SCF Done:  E(RB3LYP) =  -6172.54877451     A.U. after   16 cycles

 Excitation energies and oscillator strengths:

 Excited State   1:      Triplet-A      2.0019 eV  619.32 nm  f=0.0000  <S**2>=2.000
     119 ->120         0.70118
     119 <-120         0.10819
 This state for optimization and/or second-order correction.
 Total Energy, E(TD-HF/TD-DFT) =  -6172.47520468
 Copying the excited state density for this state as the 1-particle RhoCI density.

 Excited State   2:      Triplet-A      2.8589 eV  433.68 nm  f=0.0000  <S**2>=2.000
     117 ->120         0.48740
     118 ->120        -0.47227

 Excited State   3:      Singlet-A      3.3844 eV  366.34 nm  f=0.0689  <S**2>=0.000
     119 ->120         0.70030

 Excited State   4:      Triplet-A      3.5414 eV  350.10 nm  f=0.0000  <S**2>=2.000
     108 ->122        -0.10167
     112 ->121         0.13512
     116 ->121        -0.40125
     117 ->122         0.34558
     118 ->122         0.39069

 Excited State   5:      Singlet-A      4.1043 eV  302.08 nm  f=0.1514  <S**2>=0.000
     118 ->120         0.68719

 Excited State   6:      Singlet-A      4.1575 eV  298.22 nm  f=0.0777  <S**2>=0.000
     117 ->120         0.68348
     119 ->124        -0.10069

 The electronic state is 1-A.
 Alpha  occ. eigenvalues -- -482.93749-482.93608 -61.89628 -61.89497 -56.41126
 Alpha  occ. eigenvalues --  -56.41080 -56.40753 -56.40716 -56.40704 -56.40661
 Alpha  occ. eigenvalues --  -19.17008 -14.40893 -14.40750 -14.33947 -14.33556
 Alpha  occ. eigenvalues --  -10.28390 -10.28241 -10.27543 -10.26873 -10.26808
 Alpha  occ. eigenvalues --  -10.26173 -10.26093 -10.24718 -10.24546 -10.24179
 Alpha  occ. eigenvalues --  -10.23705 -10.23223 -10.22969 -10.22956 -10.22477
 Alpha  occ. eigenvalues --  -10.22015 -10.21582 -10.21504 -10.19961  -8.59890
 Alpha  occ. eigenvalues --   -8.59865  -6.55066  -6.55034  -6.53793  -6.53780
 Alpha  occ. eigenvalues --   -6.53767  -6.53737  -2.66614  -2.66580  -2.66249
 Alpha  occ. eigenvalues --   -2.66230  -2.66227  -2.66194  -2.65214  -2.65214
 Alpha  occ. eigenvalues --   -2.65193  -2.65192  -1.05152  -1.02203  -0.97898
 Alpha  occ. eigenvalues --   -0.91103  -0.90474  -0.89853  -0.88266  -0.83594
 Alpha  occ. eigenvalues --   -0.80903  -0.80542  -0.78455  -0.78045  -0.76480
 Alpha  occ. eigenvalues --   -0.74488  -0.73058  -0.71924  -0.68953  -0.67092
 Alpha  occ. eigenvalues --   -0.65509  -0.62983  -0.62556  -0.58937  -0.57702
 Alpha  occ. eigenvalues --   -0.57553  -0.54881  -0.53704  -0.52177  -0.50865
 Alpha  occ. eigenvalues --   -0.50469  -0.50078  -0.48980  -0.48730  -0.48292
 Alpha  occ. eigenvalues --   -0.47491  -0.46404  -0.46061  -0.44866  -0.43946
 Alpha  occ. eigenvalues --   -0.43307  -0.42567  -0.42478  -0.42051  -0.41870
 Alpha  occ. eigenvalues --   -0.41043  -0.40019  -0.39921  -0.38832  -0.37843
 Alpha  occ. eigenvalues --   -0.37304  -0.36731  -0.36668  -0.36155  -0.35697
 Alpha  occ. eigenvalues --   -0.35092  -0.34336  -0.33776  -0.33461  -0.32424
 Alpha  occ. eigenvalues --   -0.31858  -0.30680  -0.29826  -0.29364  -0.27496
 Alpha  occ. eigenvalues --   -0.26173  -0.24824  -0.24609  -0.21994
 Alpha virt. eigenvalues --   -0.08128  -0.03482  -0.03272  -0.02760  -0.02613
 Alpha virt. eigenvalues --   -0.00566  -0.00222   0.00076   0.00417   0.00514
 Alpha virt. eigenvalues --    0.00580   0.01030   0.01677   0.02132   0.02371

 Mulliken charges:
               1
     1  C   -0.257771
     2  N   -0.147097
     3  C   -0.239838
     4  C   -0.208139
     5  N   -0.151171
     6  C   -0.257408
     7  C    0.513969
     8  C   -0.175847
     9  C   -0.054941
    10  N   -0.585578
    11  C    0.133275
    12  O   -0.209191
    13  C   -0.553901
    14  C   -0.523644
    15  C   -0.309305
    16  C    0.563160
    17  C   -0.500341
    18  C    0.308551
    19  Br   0.008998
    20  C   -0.795025
    21  C    0.669105
    22  Br   0.083001
    23  C   -0.029553
    24  C    0.005028
    25  N   -0.600627
    26  C    0.510600
    27  H    0.181156
    28  H    0.142285
    29  H    0.169571
    30  H    0.146980
    31  H    0.163566
    32  H    0.164336
    33  H    0.146338
    34  H    0.141678
    35  H    0.170884
    36  H    0.181560
    37  H    0.143378
    38  H    0.153394
    39  H    0.134985
    40  H    0.175637
    41  H    0.147457
    42  H    0.132471
    43  H    0.147365
    44  H    0.160647
 Sum of Mulliken charges =  -0.00000

 Dipole moment (field-independent basis, Debye):
    X=             -9.4423    Y=             -2.8493    Z=              1.1332  Tot=              9.9277
 Quadrupole moment (field-independent basis, Debye-Ang):
   XX=           -110.7459   YY=           -201.0261   ZZ=           -179.0152
   XY=             13.6041   XZ=             -1.3767   YZ=             -5.8839

 Normal termination of Gaussian 16 at Tue Aug  5 23:33:07 2025.
