 Gaussian 16, Revision C.02,
 Gaussian 16:  ES64L-G16RevC.02  7-Dec-2021

 ----------------------------------------------------------
 # td=(50-50,nstates=3) b3lyp/6-31+g(d,p) geom=connectivity
 ----------------------------------------------------------

 -------------------
 Title Card Required
 -------------------
 Symbolic Z-matrix:
 Charge =  0 Multiplicity = 1

                         Standard orientation:
 ---------------------------------------------------------------------
 Center     Atomic      Atomic             Coordinates (Angstroms)
 Number     Number       Type             X           Y           Z
 ---------------------------------------------------------------------
      1          6           0        5.559896   -1.976612    1.558595
      2          6           0        5.371786   -0.690635    0.748681
      3          6           0        4.021291   -0.504164    0.075184
      4          6           0        2.953082   -1.396228    0.235358
      5          6           0        1.723986   -1.179029   -0.396372
      6          6           0        1.518960   -0.061033   -1.213600
      7          6           0        0.201832    0.167495   -1.948852
      8          6           0       -1.057205   -0.172348   -1.169094
      9          6           0       -1.861424   -1.240504   -1.576851
     10          6           0       -3.036553   -1.586102   -0.902110
     11          6           0       -3.456005   -0.864692    0.218327
     12          6           0       -4.720455   -1.184506    0.998964
     13          6           0       -5.563805   -2.351346    0.478183
     14          6           0       -2.653958    0.210808    0.633021
     15          6           0       -1.480028    0.554601   -0.035133
     16          6           0       -0.644133    1.756805    0.446200
     17          6           0       -0.884802    2.954946   -0.386778
     18          7           0       -1.057327    3.872924   -1.075561
     19          6           0       -0.850700    2.086224    1.867713
     20          7           0       -0.993292    2.332700    2.992227
     21          6           0        2.586857    0.836228   -1.375407
     22          6           0        3.811028    0.616359   -0.745023
     23          1           0        6.568758   -2.010127    1.981576
     24          1           0        4.851717   -2.039999    2.391855
     25          1           0        5.431151   -2.869379    0.936786
     26          1           0        6.150379   -0.637376   -0.024103
     27          1           0        5.551844    0.172739    1.403981
     28          1           0        3.068320   -2.275870    0.860185
     29          1           0        0.916559   -1.890469   -0.244995
     30          1           0        0.164257    1.210257   -2.287574
     31          1           0        0.200173   -0.435806   -2.865046
     32          1           0       -1.562040   -1.818234   -2.447679
     33          1           0       -3.620594   -2.425665   -1.263866
     34          1           0       -4.439059   -1.382374    2.042079
     35          1           0       -5.341621   -0.279431    1.031212
     36          1           0       -6.447019   -2.486719    1.109889
     37          1           0       -5.913238   -2.174672   -0.544932
     38          1           0       -5.004478   -3.293251    0.487316
     39          1           0       -2.957840    0.785639    1.504344
     40          1           0        0.421433    1.507499    0.339200
     41          1           0        2.459303    1.715172   -2.003627
     42          1           0        4.618423    1.331109   -0.889301
 ---------------------------------------------------------------------

 SCF Done:  E(RB3LYP) =  -883.709091704     A.U. after   16 cycles

 Excitation energies and oscillator strengths:

 Excited State   1:      Triplet-A      3.6275 eV  341.79 nm  f=0.0000  <S**2>=2.000
      74 -> 78         0.37048
      74 -> 80         0.11421
      75 -> 78        -0.14213
      76 -> 79        -0.36500
      76 -> 80         0.15630
      76 -> 81         0.12902
      76 -> 82        -0.11667
      77 -> 79         0.29372
 This state for optimization and/or second-order correction.
 Total Energy, E(TD-HF/TD-DFT) =  -883.575784676
 Copying the excited state density for this state as the 1-particle RhoCI density.

 Excited State   2:      Triplet-A      3.6415 eV  340.48 nm  f=0.0000  <S**2>=2.000
      74 -> 78        -0.14756
      75 -> 78        -0.10772
      75 -> 80         0.25948
      75 -> 81        -0.23359
      76 -> 79         0.21555
      76 -> 81         0.11110
      77 -> 79         0.18820
      77 -> 80         0.39021
      77 -> 81         0.19827
      77 -> 82        -0.12235

 Excited State   3:      Triplet-A      4.3165 eV  287.23 nm  f=0.0000  <S**2>=2.000
      74 -> 79        -0.13618
      75 -> 78         0.13739
      76 -> 78         0.50063
      76 -> 80         0.12311
      77 -> 78        -0.39163

 Excited State   4:      Singlet-A      4.9635 eV  249.79 nm  f=0.0103  <S**2>=0.000
      74 -> 79        -0.19412
      75 -> 79         0.16735
      76 -> 78        -0.17732
      77 -> 78         0.59300

 Excited State   5:      Singlet-A      5.1141 eV  242.44 nm  f=0.0036  <S**2>=0.000
      74 -> 79         0.27030
      75 -> 79         0.11508
      75 -> 80         0.19763
      75 -> 81         0.13468
      76 -> 78         0.43720
      77 -> 80        -0.25494
      77 -> 81         0.23451

 Excited State   6:      Singlet-A      5.1755 eV  239.56 nm  f=0.0679  <S**2>=0.000
      76 -> 78        -0.16457
      76 -> 80        -0.11194
      77 -> 78        -0.14726
      77 -> 79         0.62040
      77 -> 80        -0.16343

 The electronic state is 1-A.
 Alpha  occ. eigenvalues --  -14.36595 -14.36449 -10.30052 -10.25961 -10.25836
 Alpha  occ. eigenvalues --  -10.23852 -10.22518 -10.22021 -10.21612 -10.21554
 Alpha  occ. eigenvalues --  -10.21347 -10.21229 -10.21220 -10.21027 -10.20687
 Alpha  occ. eigenvalues --  -10.20577 -10.20392 -10.20325 -10.20284 -10.20263
 Alpha  occ. eigenvalues --  -10.19324 -10.18971  -0.94220  -0.92705  -0.89487
 Alpha  occ. eigenvalues --   -0.87370  -0.84368  -0.82188  -0.79965  -0.77025
 Alpha  occ. eigenvalues --   -0.75833  -0.75669  -0.73767  -0.69734  -0.65246
 Alpha  occ. eigenvalues --   -0.63896  -0.63475  -0.61577  -0.59637  -0.58507
 Alpha  occ. eigenvalues --   -0.58155  -0.53910  -0.52432  -0.50722  -0.49101
 Alpha  occ. eigenvalues --   -0.47777  -0.47165  -0.46551  -0.46486  -0.46118
 Alpha  occ. eigenvalues --   -0.45198  -0.43951  -0.43303  -0.43067  -0.42513
 Alpha  occ. eigenvalues --   -0.39825  -0.39306  -0.39156  -0.38910  -0.38549
 Alpha  occ. eigenvalues --   -0.38224  -0.37868  -0.37495  -0.37036  -0.36572
 Alpha  occ. eigenvalues --   -0.35991  -0.35720  -0.35467  -0.35208  -0.34889
 Alpha  occ. eigenvalues --   -0.34697  -0.34426  -0.33803  -0.27587  -0.26684
 Alpha  occ. eigenvalues --   -0.26111  -0.24968
 Alpha virt. eigenvalues --   -0.04165  -0.03751  -0.02932  -0.02159  -0.01464
 Alpha virt. eigenvalues --   -0.00900   0.00106   0.00235   0.00653   0.00817
 Alpha virt. eigenvalues --    0.01336   0.01925   0.02313   0.02450   0.02638

 Mulliken charges:
               1
     1  C   -0.656019
     2  C   -0.223736
     3  C    0.232203
     4  C   -0.838191
     5  C   -0.656742
     6  C    0.291774
     7  C   -0.265327
     8  C    0.000058
     9  C   -0.293862
    10  C   -0.801992
    11  C    0.123143
    12  C   -0.315927
    13  C   -0.635800
    14  C    0.319201
    15  C    1.066441
    16  C    0.021459
    17  C   -0.282670
    18  N   -0.374354
    19  C    0.142243
    20  N   -0.446081
    21  C    0.384776
    22  C    0.205255
    23  H    0.149696
    24  H    0.154263
    25  H    0.154660
    26  H    0.159803
    27  H    0.163512
    28  H    0.122129
    29  H    0.125789
    30  H    0.158937
    31  H    0.155083
    32  H    0.115278
    33  H    0.127412
    34  H    0.166581
    35  H    0.165088
    36  H    0.152183
    37  H    0.154970
    38  H    0.153535
    39  H    0.135791
    40  H    0.246669
    41  H    0.119763
    42  H    0.123008
 Sum of Mulliken charges =  -0.00000

 Dipole moment (field-independent basis, Debye):
    X=              1.0200    Y=             -4.9836    Z=             -1.3831  Tot=              5.2715
 Quadrupole moment (field-independent basis, Debye-Ang):
   XX=           -113.1296   YY=           -147.9768   ZZ=           -142.5766
   XY=             10.7255   XZ=              0.9550   YZ=             -2.0474

 Normal termination of Gaussian 16 at Tue Aug  5 23:28:30 2025.
