 Gaussian 16, Revision C.02,
 Gaussian 16:  ES64L-G16RevC.02  7-Dec-2021

 ----------------------------------------------------------
 # td=(50-50,nstates=3) b3lyp/6-31+g(d,p) geom=connectivity
 ----------------------------------------------------------

 -------------------
 Title Card Required
 -------------------
 Symbolic Z-matrix:
 Charge =  0 Multiplicity = 1

                         Standard orientation:
 ---------------------------------------------------------------------
 Center     Atomic      Atomic             Coordinates (Angstroms)
 Number     Number       Type             X           Y           Z
 ---------------------------------------------------------------------
      1          6           0        2.145755   -1.296542    1.178474
      2          6           0        2.770364   -0.032885    0.573374
      3          6           0        2.345292    0.288107   -0.870310
      4          6           0        0.909425    0.835999   -1.046400
      5          6           0       -0.182869   -0.168166   -0.878162
      6          6           0       -1.348715    0.019595   -0.209746
      7          6           0       -2.347798   -1.012433   -0.158392
      8          7           0       -3.149285   -1.854587   -0.121561
      9          6           0       -1.649338    1.245339    0.478842
     10          7           0       -1.886470    2.239374    1.034450
     11          1           0        2.550975   -1.488199    2.177494
     12          1           0        1.059186   -1.215633    1.282238
     13          1           0        2.359155   -2.177729    0.561503
     14          1           0        3.862049   -0.143804    0.582282
     15          1           0        2.550440    0.832408    1.213286
     16          1           0        3.023763    1.049121   -1.272972
     17          1           0        2.476008   -0.601643   -1.502357
     18          1           0        0.822560    1.211149   -2.078709
     19          1           0        0.744315    1.698071   -0.390994
     20          1           0       -0.050869   -1.131337   -1.368071
 ---------------------------------------------------------------------

 SCF Done:  E(RB3LYP) =  -420.354159698     A.U. after   14 cycles

 Excitation energies and oscillator strengths:

 Excited State   1:      Triplet-A      2.9374 eV  422.08 nm  f=0.0000  <S**2>=2.000
      36 -> 37         0.69559
      36 <- 37         0.12011
 This state for optimization and/or second-order correction.
 Total Energy, E(TD-HF/TD-DFT) =  -420.246211235
 Copying the excited state density for this state as the 1-particle RhoCI density.

 Excited State   2:      Triplet-A      5.2096 eV  237.99 nm  f=0.0000  <S**2>=2.000
      31 -> 37         0.55664
      33 -> 38         0.14720
      36 -> 43         0.29310

 Excited State   3:      Singlet-A      5.2520 eV  236.07 nm  f=0.3791  <S**2>=0.000
      36 -> 37         0.68751

 Excited State   4:      Triplet-A      5.5175 eV  224.71 nm  f=0.0000  <S**2>=2.000
      30 -> 37         0.10332
      30 -> 43         0.11241
      31 -> 38         0.10727
      32 -> 37         0.21842
      33 -> 37         0.44393
      35 -> 37        -0.39256
      36 -> 38         0.15554

 Excited State   5:      Singlet-A      5.8225 eV  212.94 nm  f=0.0007  <S**2>=0.000
      32 -> 37        -0.23715
      33 -> 37        -0.44905
      35 -> 37         0.48193

 Excited State   6:      Singlet-A      5.9998 eV  206.65 nm  f=0.0022  <S**2>=0.000
      30 -> 37        -0.37346
      32 -> 37         0.11864
      34 -> 37         0.46873
      36 -> 38         0.31055

 The electronic state is 1-A.
 Alpha  occ. eigenvalues --  -14.37142 -14.36858 -10.29479 -10.27392 -10.26404
 Alpha  occ. eigenvalues --  -10.26171 -10.23457 -10.21935 -10.20749 -10.19534
 Alpha  occ. eigenvalues --   -0.94458  -0.93036  -0.87634  -0.82428  -0.76972
 Alpha  occ. eigenvalues --   -0.70592  -0.65490  -0.62049  -0.59053  -0.53410
 Alpha  occ. eigenvalues --   -0.49415  -0.47483  -0.44165  -0.43357  -0.42756
 Alpha  occ. eigenvalues --   -0.41594  -0.39752  -0.39010  -0.38775  -0.37185
 Alpha  occ. eigenvalues --   -0.36784  -0.35927  -0.35881  -0.35775  -0.35191
 Alpha  occ. eigenvalues --   -0.29581
 Alpha virt. eigenvalues --   -0.09893  -0.02547  -0.01288   0.00074   0.00504
 Alpha virt. eigenvalues --    0.00826   0.01408   0.02748   0.03262   0.03928
 Alpha virt. eigenvalues --    0.04127   0.04402   0.05109   0.06674   0.06947

 Mulliken charges:
               1
     1  C   -0.505473
     2  C   -0.138960
     3  C   -0.245287
     4  C   -0.295089
     5  C    0.284595
     6  C    0.820622
     7  C   -0.116334
     8  N   -0.478150
     9  C   -0.360645
    10  N   -0.486097
    11  H    0.152310
    12  H    0.149835
    13  H    0.145313
    14  H    0.142894
    15  H    0.141557
    16  H    0.147243
    17  H    0.138447
    18  H    0.177642
    19  H    0.168524
    20  H    0.157055
 Sum of Mulliken charges =   0.00000

 Dipole moment (field-independent basis, Debye):
    X=              5.4093    Y=             -0.2278    Z=             -2.3826  Tot=              5.9151
 Quadrupole moment (field-independent basis, Debye-Ang):
   XX=            -72.1879   YY=            -72.0711   ZZ=            -60.1359
   XY=             -2.3694   XZ=              1.5768   YZ=             -3.7692

 Normal termination of Gaussian 16 at Tue Aug  5 23:33:04 2025.
