 Gaussian 16, Revision C.02,
 Gaussian 16:  ES64L-G16RevC.02  7-Dec-2021

 ----------------------------------------------------------
 # td=(50-50,nstates=3) b3lyp/6-31+g(d,p) geom=connectivity
 ----------------------------------------------------------

 -------------------
 Title Card Required
 -------------------
 Symbolic Z-matrix:
 Charge =  0 Multiplicity = 1

                         Standard orientation:
 ---------------------------------------------------------------------
 Center     Atomic      Atomic             Coordinates (Angstroms)
 Number     Number       Type             X           Y           Z
 ---------------------------------------------------------------------
      1          6           0       -3.976098    0.542054    1.604682
      2          6           0       -4.181888    0.590806    0.096080
      3          8           0       -4.983321   -0.545947   -0.253140
      4          6           0       -2.855778    0.591896   -0.702484
      5          6           0       -2.032847   -0.639656   -0.487201
      6          6           0       -0.694202   -0.701131   -0.318318
      7          6           0        0.092614   -1.902368   -0.122385
      8          6           0        1.424021   -1.692601    0.025838
      9          6           0        1.802836   -0.298579   -0.044415
     10          6           0        3.087468    0.200685    0.071962
     11          6           0        3.354934    1.598255   -0.009845
     12          7           0        3.545326    2.746043   -0.080814
     13          6           0        4.188003   -0.683267    0.279113
     14          7           0        5.072854   -1.422763    0.448312
     15         16           0        0.395353    0.722452   -0.308457
     16          1           0       -4.941652    0.581267    2.115684
     17          1           0       -3.471458   -0.383910    1.898041
     18          1           0       -3.367696    1.388356    1.939271
     19          1           0       -4.721174    1.513779   -0.161990
     20          1           0       -5.350298   -0.422521   -1.138450
     21          1           0       -3.107003    0.662659   -1.773036
     22          1           0       -2.288743    1.498783   -0.460491
     23          1           0       -2.576444   -1.582950   -0.477335
     24          1           0       -0.379844   -2.878566   -0.097617
     25          1           0        2.163597   -2.468096    0.185703
 ---------------------------------------------------------------------

 SCF Done:  E(RB3LYP) =  -1008.07777999     A.U. after   17 cycles

 Excitation energies and oscillator strengths:

 Excited State   1:      Triplet-A      1.5399 eV  805.16 nm  f=0.0000  <S**2>=2.000
      57 -> 58         0.70872
      57 <- 58         0.15653
 This state for optimization and/or second-order correction.
 Total Energy, E(TD-HF/TD-DFT) =  -1008.02119062
 Copying the excited state density for this state as the 1-particle RhoCI density.

 Excited State   2:      Triplet-A      3.3382 eV  371.41 nm  f=0.0000  <S**2>=2.000
      54 -> 58         0.12092
      55 -> 58        -0.12272
      56 -> 58         0.63927
      57 -> 59        -0.14211

 Excited State   3:      Singlet-A      3.3426 eV  370.93 nm  f=0.6440  <S**2>=0.000
      56 -> 58        -0.13256
      57 -> 58         0.69392
      57 <- 58        -0.10935

 Excited State   4:      Triplet-A      3.5518 eV  349.07 nm  f=0.0000  <S**2>=2.000
      54 -> 58         0.51907
      55 -> 58         0.30114
      56 -> 58        -0.12238
      57 -> 59        -0.26378
      57 -> 60         0.12922
      57 -> 61         0.11405

 Excited State   5:      Singlet-A      4.2108 eV  294.44 nm  f=0.1450  <S**2>=0.000
      56 -> 58         0.68686
      57 -> 58         0.13268

 Excited State   6:      Singlet-A      4.4857 eV  276.40 nm  f=0.0157  <S**2>=0.000
      55 -> 58         0.69570

 The electronic state is 1-A.
 Alpha  occ. eigenvalues --  -88.94558 -19.18499 -14.35826 -14.35682 -10.29482
 Alpha  occ. eigenvalues --  -10.28005 -10.27484 -10.27031 -10.25432 -10.25217
 Alpha  occ. eigenvalues --  -10.25193 -10.24841 -10.24590 -10.23170 -10.20025
 Alpha  occ. eigenvalues --   -8.00491  -5.96963  -5.96602  -5.96076  -1.05336
 Alpha  occ. eigenvalues --   -0.94036  -0.92042  -0.91839  -0.85714  -0.82725
 Alpha  occ. eigenvalues --   -0.78932  -0.77514  -0.73318  -0.67955  -0.62520
 Alpha  occ. eigenvalues --   -0.62125  -0.59493  -0.57118  -0.56015  -0.53710
 Alpha  occ. eigenvalues --   -0.49116  -0.48632  -0.47536  -0.44554  -0.44461
 Alpha  occ. eigenvalues --   -0.44114  -0.41388  -0.41195  -0.40684  -0.39702
 Alpha  occ. eigenvalues --   -0.38852  -0.38484  -0.37948  -0.37720  -0.35872
 Alpha  occ. eigenvalues --   -0.35622  -0.35434  -0.34625  -0.32434  -0.30791
 Alpha  occ. eigenvalues --   -0.30293  -0.24219
 Alpha virt. eigenvalues --   -0.12167  -0.03424  -0.03254  -0.02277  -0.00931
 Alpha virt. eigenvalues --   -0.00048   0.00139   0.00796   0.01326   0.01584
 Alpha virt. eigenvalues --    0.02000   0.02150   0.02943   0.03390   0.03956

 Mulliken charges:
               1
     1  C   -0.493539
     2  C    0.181115
     3  O   -0.503366
     4  C   -0.496137
     5  C    0.496218
     6  C   -0.631965
     7  C    0.137991
     8  C    0.161922
     9  C    0.068312
    10  C    1.297277
    11  C   -0.339701
    12  N   -0.470776
    13  C   -0.425079
    14  N   -0.502762
    15  S   -0.240780
    16  H    0.165731
    17  H    0.162052
    18  H    0.151180
    19  H    0.124951
    20  H    0.347878
    21  H    0.167109
    22  H    0.151647
    23  H    0.164448
    24  H    0.153556
    25  H    0.172716
 Sum of Mulliken charges =  -0.00000

 Dipole moment (field-independent basis, Debye):
    X=             -8.5820    Y=             -1.8191    Z=             -1.5387  Tot=              8.9066
 Quadrupole moment (field-independent basis, Debye-Ang):
   XX=           -122.6659   YY=           -103.3532   ZZ=            -94.3941
   XY=             -9.0904   XZ=              4.8925   YZ=              1.7238

 Normal termination of Gaussian 16 at Tue Aug  5 23:31:03 2025.
