 Gaussian 16, Revision C.02,
 Gaussian 16:  ES64L-G16RevC.02  7-Dec-2021

 ----------------------------------------------------------
 # td=(50-50,nstates=3) b3lyp/6-31+g(d,p) geom=connectivity
 ----------------------------------------------------------

 -------------------
 Title Card Required
 -------------------
 Symbolic Z-matrix:
 Charge =  0 Multiplicity = 1

                         Standard orientation:
 ---------------------------------------------------------------------
 Center     Atomic      Atomic             Coordinates (Angstroms)
 Number     Number       Type             X           Y           Z
 ---------------------------------------------------------------------
      1          6           0       -3.032149    1.437833   -2.178893
      2          6           0       -2.723117    1.781208   -0.911122
      3          6           0       -3.059791    3.105406   -0.453344
      4          7           0       -3.395947    4.158212   -0.090860
      5          6           0       -2.102528    0.819113    0.039874
      6          6           0       -1.180511    1.161078    0.983102
      7          6           0       -0.594922    2.467218    1.043530
      8          7           0       -0.032153    3.484095    1.119629
      9          6           0       -0.657383    0.180684    2.019856
     10          6           0        0.666015   -0.502268    1.669457
     11          8           0        1.579271   -0.560590    2.471233
     12          7           0        0.845153   -1.011428    0.373084
     13          6           0        2.240651   -1.465007    0.053299
     14          8           0        2.454021   -2.651577    0.050345
     15          6           0        3.231202   -0.410928   -0.238765
     16          6           0        4.577711   -0.797675   -0.362007
     17          6           0        5.551196    0.153712   -0.650416
     18          6           0        5.190173    1.495734   -0.822163
     19          6           0        3.852936    1.884546   -0.705903
     20          6           0        2.874821    0.934807   -0.414327
     21          6           0       -0.113051   -1.327593   -0.606048
     22          8           0        0.244367   -1.494045   -1.759165
     23          6           0       -1.550357   -1.612866   -0.233761
     24          6           0       -1.939895   -2.959795   -0.256128
     25          6           0       -3.280116   -3.306451   -0.093708
     26          6           0       -4.247456   -2.307678    0.058747
     27          6           0       -3.868033   -0.967428    0.063645
     28          6           0       -2.515690   -0.604326   -0.060911
     29          1           0       -2.819295    0.443073   -2.555145
     30          1           0       -3.487703    2.151876   -2.855740
     31          1           0       -0.461706    0.699241    2.960607
     32          1           0       -1.409231   -0.590304    2.213608
     33          1           0        4.837945   -1.841575   -0.224686
     34          1           0        6.590785   -0.146312   -0.739572
     35          1           0        5.951753    2.237340   -1.045119
     36          1           0        3.570272    2.924059   -0.837641
     37          1           0        1.839439    1.243901   -0.331652
     38          1           0       -1.190069   -3.727983   -0.417420
     39          1           0       -3.570605   -4.352347   -0.103378
     40          1           0       -5.293799   -2.572781    0.173992
     41          1           0       -4.616673   -0.190604    0.185777
 ---------------------------------------------------------------------

 SCF Done:  E(RB3LYP) =  -1236.09646346     A.U. after   17 cycles

 Excitation energies and oscillator strengths:

 Excited State   1:      Triplet-A      2.3878 eV  519.25 nm  f=0.0000  <S**2>=2.000
      89 -> 96        -0.22104
      92 -> 96        -0.11491
      93 -> 96         0.22177
      95 -> 96         0.58699
 This state for optimization and/or second-order correction.
 Total Energy, E(TD-HF/TD-DFT) =  -1236.00871465
 Copying the excited state density for this state as the 1-particle RhoCI density.

 Excited State   2:      Triplet-A      3.2147 eV  385.68 nm  f=0.0000  <S**2>=2.000
      93 -> 97         0.51322
      94 -> 97         0.29815
      94 ->102        -0.20680
      95 -> 97        -0.22203

 Excited State   3:      Triplet-A      3.3102 eV  374.55 nm  f=0.0000  <S**2>=2.000
      86 -> 96        -0.11189
      87 -> 96         0.24542
      88 -> 96        -0.10133
      89 -> 96        -0.32186
      89 ->101        -0.13997
      92 -> 96         0.13602
      92 -> 99        -0.10561
      92 ->100        -0.11338
      93 -> 98         0.13648
      95 -> 98         0.35068
      95 -> 99         0.14142

 Excited State   4:      Singlet-A      3.8856 eV  319.09 nm  f=0.0803  <S**2>=0.000
      92 -> 96         0.24744
      93 -> 96        -0.20188
      95 -> 96         0.61387

 Excited State   5:      Singlet-A      3.9146 eV  316.72 nm  f=0.0012  <S**2>=0.000
      94 -> 96         0.70291

 Excited State   6:      Singlet-A      4.0211 eV  308.34 nm  f=0.0676  <S**2>=0.000
      89 -> 96         0.11443
      93 -> 96         0.66195
      95 -> 96         0.18843

 The electronic state is 1-A.
 Alpha  occ. eigenvalues --  -19.18136 -19.18028 -19.17483 -14.41970 -14.36845
 Alpha  occ. eigenvalues --  -14.36551 -10.34956 -10.34525 -10.34150 -10.28385
 Alpha  occ. eigenvalues --  -10.28117 -10.27743 -10.25735 -10.25661 -10.25617
 Alpha  occ. eigenvalues --  -10.25462 -10.25461 -10.24983 -10.24077 -10.23910
 Alpha  occ. eigenvalues --  -10.23770 -10.23715 -10.22831 -10.22216 -10.22088
 Alpha  occ. eigenvalues --  -10.21870 -10.21565 -10.21499  -1.11190  -1.08604
 Alpha  occ. eigenvalues --   -1.08120  -0.96375  -0.94253  -0.93093  -0.91827
 Alpha  occ. eigenvalues --   -0.88436  -0.88246  -0.84589  -0.80888  -0.80240
 Alpha  occ. eigenvalues --   -0.78895  -0.77167  -0.76501  -0.70840  -0.69497
 Alpha  occ. eigenvalues --   -0.68122  -0.67156  -0.65787  -0.63584  -0.62887
 Alpha  occ. eigenvalues --   -0.61213  -0.58829  -0.57428  -0.56214  -0.53484
 Alpha  occ. eigenvalues --   -0.52815  -0.51683  -0.50828  -0.50594  -0.50061
 Alpha  occ. eigenvalues --   -0.48723  -0.48250  -0.47431  -0.47187  -0.46630
 Alpha  occ. eigenvalues --   -0.46399  -0.45925  -0.45260  -0.44554  -0.43682
 Alpha  occ. eigenvalues --   -0.43056  -0.42788  -0.41880  -0.41451  -0.40602
 Alpha  occ. eigenvalues --   -0.40353  -0.39457  -0.39354  -0.38609  -0.38249
 Alpha  occ. eigenvalues --   -0.38134  -0.38016  -0.36721  -0.36567  -0.35025
 Alpha  occ. eigenvalues --   -0.33707  -0.33222  -0.31448  -0.30961  -0.30422
 Alpha  occ. eigenvalues --   -0.29763  -0.28860  -0.27988  -0.27636  -0.27508
 Alpha virt. eigenvalues --   -0.11593  -0.08815  -0.07793  -0.07206  -0.05796
 Alpha virt. eigenvalues --   -0.03558  -0.03163  -0.01853  -0.01631  -0.00671
 Alpha virt. eigenvalues --   -0.00140   0.00090   0.00483   0.00988   0.01692

 Mulliken charges:
               1
     1  C   -0.335429
     2  C    0.448486
     3  C   -0.071277
     4  N   -0.457277
     5  C    0.035667
     6  C    0.845072
     7  C   -0.498017
     8  N   -0.397427
     9  C   -0.208831
    10  C    0.148128
    11  O   -0.294974
    12  N    0.084328
    13  C   -0.271105
    14  O   -0.297345
    15  C    0.321285
    16  C   -0.609759
    17  C   -0.145673
    18  C    0.095455
    19  C   -0.164784
    20  C    0.493954
    21  C   -0.764428
    22  O   -0.205912
    23  C    0.305275
    24  C    0.172784
    25  C   -0.218355
    26  C   -0.147042
    27  C   -0.184303
    28  C    0.284545
    29  H    0.170879
    30  H    0.175517
    31  H    0.200834
    32  H    0.201342
    33  H    0.157574
    34  H    0.136477
    35  H    0.135224
    36  H    0.146061
    37  H    0.122977
    38  H    0.159114
    39  H    0.144741
    40  H    0.143151
    41  H    0.143070
 Sum of Mulliken charges =  -0.00000

 Dipole moment (field-independent basis, Debye):
    X=             -3.0563    Y=             -3.9164    Z=             -1.8978  Tot=              5.3179
 Quadrupole moment (field-independent basis, Debye-Ang):
   XX=           -133.6664   YY=           -185.2451   ZZ=           -165.9617
   XY=             25.8338   XZ=             -2.9177   YZ=            -10.0728

 Normal termination of Gaussian 16 at Tue Aug  5 23:51:05 2025.
