 Gaussian 16, Revision C.02,
 Gaussian 16:  ES64L-G16RevC.02  7-Dec-2021

 ----------------------------------------------------------
 # td=(50-50,nstates=3) b3lyp/6-31+g(d,p) geom=connectivity
 ----------------------------------------------------------

 -------------------
 Title Card Required
 -------------------
 Symbolic Z-matrix:
 Charge =  0 Multiplicity = 1

                         Standard orientation:
 ---------------------------------------------------------------------
 Center     Atomic      Atomic             Coordinates (Angstroms)
 Number     Number       Type             X           Y           Z
 ---------------------------------------------------------------------
      1          6           0       -4.731010   -1.724463   -0.837208
      2          6           0       -3.972154   -0.627540   -0.616614
      3          6           0       -4.230834    0.615462   -1.294723
      4          7           0       -4.426075    1.626470   -1.834926
      5          6           0       -2.864073   -0.645159    0.312086
      6          6           0       -1.902180    0.173539    0.808336
      7          6           0       -1.434817    1.589571    0.672648
      8          6           0       -0.824981    2.097326    1.990851
      9          6           0       -0.472406    1.800409   -0.545017
     10          6           0        0.827940    1.049245   -0.510093
     11          6           0        2.051543    1.505432   -0.087633
     12          6           0        3.063727    0.505912   -0.189966
     13         16           0        4.769646    0.433378    0.164504
     14          6           0        4.836936   -1.231255   -0.373866
     15          6           0        3.627352   -1.709427   -0.801904
     16          6           0        2.615011   -0.710344   -0.695234
     17         16           0        0.910859   -0.629115   -1.058089
     18          6           0       -1.492181   -1.003011    1.634533
     19          8           0       -0.734230   -1.353111    2.476690
     20          8           0       -2.551125   -1.819554    1.031322
     21          1           0       -4.511982   -2.646616   -0.311060
     22          1           0       -5.560619   -1.703136   -1.534278
     23          1           0       -2.318144    2.199522    0.444787
     24          1           0       -0.539259    3.149522    1.891480
     25          1           0       -1.545455    2.019168    2.810773
     26          1           0        0.064939    1.524726    2.265929
     27          1           0       -1.021879    1.560652   -1.462218
     28          1           0       -0.244661    2.871825   -0.592711
     29          1           0        2.211897    2.515168    0.272825
     30          1           0        5.779779   -1.759786   -0.336802
     31          1           0        3.475435   -2.717397   -1.168163
 ---------------------------------------------------------------------

 SCF Done:  E(RB3LYP) =  -1579.74203677     A.U. after   18 cycles

 Excitation energies and oscillator strengths:

 Excited State   1:      Triplet-A      1.8222 eV  680.42 nm  f=0.0000  <S**2>=2.000
      73 -> 79        -0.13677
      76 -> 79         0.61075
      77 -> 79        -0.12003
      78 -> 79         0.29898
      76 <- 79         0.12407
 This state for optimization and/or second-order correction.
 Total Energy, E(TD-HF/TD-DFT) =  -1579.67507278
 Copying the excited state density for this state as the 1-particle RhoCI density.

 Excited State   2:      Singlet-A      2.2855 eV  542.48 nm  f=0.0165  <S**2>=0.000
      78 -> 79         0.70537

 Excited State   3:      Triplet-A      2.3169 eV  535.14 nm  f=0.0000  <S**2>=2.000
      76 -> 79        -0.27116
      77 -> 79         0.10146
      78 -> 79         0.63288

 Excited State   4:      Triplet-A      2.7232 eV  455.28 nm  f=0.0000  <S**2>=2.000
      76 -> 79         0.14546
      77 -> 79         0.68458

 Excited State   5:      Singlet-A      2.7314 eV  453.92 nm  f=0.0180  <S**2>=0.000
      77 -> 79         0.70463

 Excited State   6:      Singlet-A      3.3803 eV  366.79 nm  f=0.1543  <S**2>=0.000
      73 -> 79         0.16178
      76 -> 79         0.68071

 The electronic state is 1-A.
 Alpha  occ. eigenvalues --  -88.92102 -88.92076 -19.20860 -19.19462 -14.37628
 Alpha  occ. eigenvalues --  -10.35345 -10.30839 -10.28760 -10.26762 -10.26023
 Alpha  occ. eigenvalues --  -10.23898 -10.23665 -10.23320 -10.22910 -10.22839
 Alpha  occ. eigenvalues --  -10.22832 -10.21999 -10.21228 -10.21148 -10.19487
 Alpha  occ. eigenvalues --   -7.97991  -7.97919  -5.94434  -5.94368  -5.94073
 Alpha  occ. eigenvalues --   -5.94014  -5.93659  -5.93583  -1.13331  -1.07706
 Alpha  occ. eigenvalues --   -0.94391  -0.91309  -0.86956  -0.85950  -0.83792
 Alpha  occ. eigenvalues --   -0.78562  -0.76824  -0.73997  -0.71343  -0.70830
 Alpha  occ. eigenvalues --   -0.68898  -0.65950  -0.63694  -0.57741  -0.56460
 Alpha  occ. eigenvalues --   -0.55061  -0.54343  -0.53657  -0.51245  -0.50025
 Alpha  occ. eigenvalues --   -0.49552  -0.49422  -0.47452  -0.46807  -0.44829
 Alpha  occ. eigenvalues --   -0.44588  -0.44093  -0.42356  -0.42087  -0.41322
 Alpha  occ. eigenvalues --   -0.40763  -0.39555  -0.39459  -0.39037  -0.38185
 Alpha  occ. eigenvalues --   -0.37865  -0.37476  -0.37207  -0.36142  -0.36025
 Alpha  occ. eigenvalues --   -0.34139  -0.33336  -0.32301  -0.31204  -0.28891
 Alpha  occ. eigenvalues --   -0.26232  -0.23783  -0.22115
 Alpha virt. eigenvalues --   -0.11968  -0.04639  -0.04091  -0.01792  -0.00865
 Alpha virt. eigenvalues --   -0.00598  -0.00013   0.00421   0.00672   0.01471
 Alpha virt. eigenvalues --    0.01884   0.02150   0.02391   0.02940   0.03298

 Mulliken charges:
               1
     1  C   -0.119229
     2  C    0.994760
     3  C   -0.882211
     4  N   -0.443812
     5  C    0.261461
     6  C   -0.200457
     7  C    0.132653
     8  C   -0.722088
     9  C   -0.411388
    10  C    0.178985
    11  C    0.347849
    12  C   -0.554000
    13  S    0.088396
    14  C   -0.155491
    15  C   -0.498245
    16  C    0.365339
    17  S    0.017262
    18  C    0.571725
    19  O   -0.383770
    20  O   -0.359161
    21  H    0.192766
    22  H    0.176632
    23  H    0.157497
    24  H    0.144410
    25  H    0.153842
    26  H    0.187523
    27  H    0.166639
    28  H    0.155100
    29  H    0.131293
    30  H    0.164996
    31  H    0.140725
 Sum of Mulliken charges =  -0.00000

 Dipole moment (field-independent basis, Debye):
    X=             -1.0619    Y=             -0.3418    Z=             -0.7381  Tot=              1.3376
 Quadrupole moment (field-independent basis, Debye-Ang):
   XX=           -119.1051   YY=           -126.8649   ZZ=           -141.6064
   XY=              8.3490   XZ=             -1.6987   YZ=             13.8879

 Normal termination of Gaussian 16 at Thu Jul 31 20:08:26 2025.
