 Gaussian 16, Revision C.02,
 Gaussian 16:  ES64L-G16RevC.02  7-Dec-2021

 ----------------------------------------------------------
 # td=(50-50,nstates=3) b3lyp/6-31+g(d,p) geom=connectivity
 ----------------------------------------------------------

 -------------------
 Title Card Required
 -------------------
 Symbolic Z-matrix:
 Charge =  0 Multiplicity = 1

                         Standard orientation:
 ---------------------------------------------------------------------
 Center     Atomic      Atomic             Coordinates (Angstroms)
 Number     Number       Type             X           Y           Z
 ---------------------------------------------------------------------
      1          6           0        0.278098   -3.086245   -1.046721
      2          6           0       -0.164033   -1.845183   -0.726918
      3          6           0       -1.577291   -1.663011   -0.425786
      4          6           0       -2.091680   -0.506603    0.046801
      5          6           0       -3.572520   -0.325413    0.416418
      6          6           0       -4.420779   -1.515248   -0.078015
      7          6           0       -3.728592   -0.232098    1.956444
      8          6           0       -4.129561    0.960568   -0.243370
      9          6           0       -1.126834    0.603041    0.286166
     10          8           0       -1.411091    1.529739    1.047025
     11          6           0        0.233652    0.572819   -0.376465
     12          6           0        0.960525    1.935043   -0.519080
     13          6           0       -0.048637    3.018667   -0.997723
     14          6           0        1.569820    2.359430    0.840454
     15          6           0        2.083869    1.930613   -1.584243
     16          6           0        0.717529   -0.659204   -0.715958
     17          6           0        2.139271   -0.936555   -1.118701
     18          6           0        4.808921   -0.862508    1.217736
     19          7           0        5.634665   -0.325571    1.842835
     20          6           0        3.071250   -1.217357   -0.247759
     21          7           0        3.915775   -1.622170    0.565918
     22          1           0       -0.414897   -3.920948   -1.083264
     23          1           0        1.317281   -3.299645   -1.263834
     24          1           0       -2.206187   -2.535244   -0.568591
     25          1           0       -5.473693   -1.326428    0.154373
     26          1           0       -4.339817   -1.654641   -1.162061
     27          1           0       -4.145229   -2.454276    0.414383
     28          1           0       -4.789993   -0.129701    2.211369
     29          1           0       -3.188781    0.625525    2.359258
     30          1           0       -3.352572   -1.140594    2.440450
     31          1           0       -4.040245    0.912061   -1.334935
     32          1           0       -5.192497    1.067162    0.000135
     33          1           0       -3.609380    1.851891    0.110934
     34          1           0        0.495268    3.951833   -1.176137
     35          1           0       -0.518749    2.725019   -1.944097
     36          1           0       -0.828940    3.215306   -0.265416
     37          1           0        2.067070    3.330558    0.733383
     38          1           0        2.321635    1.637708    1.178417
     39          1           0        0.798721    2.446689    1.607525
     40          1           0        1.736885    1.523821   -2.541079
     41          1           0        2.392183    2.965660   -1.762906
     42          1           0        2.972709    1.383122   -1.273432
     43          1           0        2.416841   -0.963135   -2.171622
 ---------------------------------------------------------------------

 SCF Done:  E(RB3LYP) =  -883.831823874     A.U. after   19 cycles

 Excitation energies and oscillator strengths:

 Excited State   1:      Triplet-A      1.9402 eV  639.03 nm  f=0.0000  <S**2>=2.000
      73 -> 79         0.11423
      75 -> 77         0.32284
      76 -> 77         0.60925
      76 -> 78         0.11464
      76 <- 77         0.13482
 This state for optimization and/or second-order correction.
 Total Energy, E(TD-HF/TD-DFT) =  -883.760523011
 Copying the excited state density for this state as the 1-particle RhoCI density.

 Excited State   2:      Triplet-A      2.5222 eV  491.57 nm  f=0.0000  <S**2>=2.000
      75 -> 77         0.59731
      76 -> 77        -0.31747

 Excited State   3:      Singlet-A      2.8959 eV  428.14 nm  f=0.0013  <S**2>=0.000
      75 -> 77         0.58561
      76 -> 77        -0.36685

 Excited State   4:      Triplet-A      2.9233 eV  424.12 nm  f=0.0000  <S**2>=2.000
      73 -> 77         0.65421
      76 -> 79         0.16544

 Excited State   5:      Singlet-A      3.5956 eV  344.82 nm  f=0.0013  <S**2>=0.000
      74 -> 77         0.47828
      74 -> 78        -0.47264
      75 -> 78        -0.14331
      76 -> 78         0.13965

 Excited State   6:      Singlet-A      3.8005 eV  326.23 nm  f=0.0252  <S**2>=0.000
      73 -> 77         0.54935
      75 -> 77        -0.19516
      76 -> 77        -0.28114
      76 -> 78         0.25266

 The electronic state is 1-A.
 Alpha  occ. eigenvalues --  -19.15186 -14.43375 -14.35902 -10.31398 -10.29111
 Alpha  occ. eigenvalues --  -10.28221 -10.25139 -10.24750 -10.24001 -10.23422
 Alpha  occ. eigenvalues --  -10.22757 -10.22444 -10.22218 -10.22011 -10.21957
 Alpha  occ. eigenvalues --  -10.18730 -10.18630 -10.17902 -10.17876 -10.17766
 Alpha  occ. eigenvalues --  -10.17652  -1.05149  -1.02247  -0.91880  -0.89277
 Alpha  occ. eigenvalues --   -0.84839  -0.82875  -0.81548  -0.77619  -0.75787
 Alpha  occ. eigenvalues --   -0.70156  -0.69671  -0.69110  -0.68881  -0.68811
 Alpha  occ. eigenvalues --   -0.66614  -0.63712  -0.60768  -0.56440  -0.55016
 Alpha  occ. eigenvalues --   -0.53544  -0.52182  -0.50916  -0.48580  -0.47792
 Alpha  occ. eigenvalues --   -0.46887  -0.45486  -0.45119  -0.44664  -0.44497
 Alpha  occ. eigenvalues --   -0.44246  -0.44148  -0.43084  -0.42094  -0.41035
 Alpha  occ. eigenvalues --   -0.40284  -0.39659  -0.39084  -0.38585  -0.38525
 Alpha  occ. eigenvalues --   -0.38167  -0.37669  -0.37017  -0.35790  -0.35584
 Alpha  occ. eigenvalues --   -0.34824  -0.34555  -0.34369  -0.33932  -0.33593
 Alpha  occ. eigenvalues --   -0.33225  -0.32754  -0.27898  -0.27732  -0.25879
 Alpha  occ. eigenvalues --   -0.25656
 Alpha virt. eigenvalues --   -0.10857  -0.08736  -0.02564  -0.02226  -0.01448
 Alpha virt. eigenvalues --   -0.00677   0.00083   0.00623   0.01071   0.01793
 Alpha virt. eigenvalues --    0.02077   0.02616   0.02819   0.03399   0.03900

 Mulliken charges:
               1
     1  C   -0.571160
     2  C    0.422790
     3  C   -0.432543
     4  C    0.652786
     5  C    0.309576
     6  C   -0.445135
     7  C   -0.548403
     8  C   -0.544725
     9  C   -0.426771
    10  O   -0.422793
    11  C    0.130101
    12  C    0.449221
    13  C   -0.543236
    14  C   -0.528741
    15  C   -0.475272
    16  C   -0.072655
    17  C    0.125169
    18  C    0.403264
    19  N   -0.417860
    20  C   -0.111175
    21  N   -0.353275
    22  H    0.148400
    23  H    0.154083
    24  H    0.129529
    25  H    0.152489
    26  H    0.152225
    27  H    0.144108
    28  H    0.142341
    29  H    0.186031
    30  H    0.142414
    31  H    0.142500
    32  H    0.143874
    33  H    0.176579
    34  H    0.142165
    35  H    0.144551
    36  H    0.184277
    37  H    0.147122
    38  H    0.141334
    39  H    0.183552
    40  H    0.144712
    41  H    0.147736
    42  H    0.151420
    43  H    0.199396
 Sum of Mulliken charges =  -0.00000

 Dipole moment (field-independent basis, Debye):
    X=             -3.3434    Y=             -2.4969    Z=             -4.3889  Tot=              6.0560
 Quadrupole moment (field-independent basis, Debye-Ang):
   XX=           -151.9907   YY=           -124.2960   ZZ=           -133.2617
   XY=              3.2068   XZ=            -14.7814   YZ=              0.5553

 Normal termination of Gaussian 16 at Tue Aug  5 23:43:51 2025.
