 Gaussian 16, Revision C.02,
 Gaussian 16:  ES64L-G16RevC.02  7-Dec-2021

 ----------------------------------------------------------
 # td=(50-50,nstates=3) b3lyp/6-31+g(d,p) geom=connectivity
 ----------------------------------------------------------

 -------------------
 Title Card Required
 -------------------
 Symbolic Z-matrix:
 Charge =  0 Multiplicity = 1

                         Standard orientation:
 ---------------------------------------------------------------------
 Center     Atomic      Atomic             Coordinates (Angstroms)
 Number     Number       Type             X           Y           Z
 ---------------------------------------------------------------------
      1          6           0        6.869047   -1.656401    0.059686
      2          6           0        6.070424   -0.356341    0.205822
      3          6           0        4.556866   -0.557574    0.047761
      4          6           0        3.770616    0.749821    0.194663
      5          6           0        2.260009    0.668615    0.058648
      6          6           0        1.575937   -0.528355   -0.197164
      7          6           0        0.184938   -0.554288   -0.314844
      8          6           0       -0.557331    0.625811   -0.177994
      9          6           0       -2.036296    0.660985   -0.295267
     10          8           0       -2.719239    1.665131   -0.203425
     11          8           0       -2.575087   -0.571335   -0.520107
     12          6           0       -4.000484   -0.630410   -0.693512
     13          6           0       -4.707871   -0.639107    0.673951
     14          6           0       -6.147615   -0.862071    0.527084
     15          7           0       -7.285822   -1.046375    0.388566
     16          6           0        0.116255    1.831774    0.077888
     17          6           0        1.500631    1.846141    0.193204
     18          1           0        7.943309   -1.479272    0.177348
     19          1           0        6.568846   -2.393212    0.814073
     20          1           0        6.712641   -2.109120   -0.926557
     21          1           0        6.418347    0.372291   -0.539330
     22          1           0        6.275454    0.090362    1.188489
     23          1           0        4.212450   -1.284890    0.795761
     24          1           0        4.356210   -1.003996   -0.935857
     25          1           0        4.140413    1.472987   -0.546362
     26          1           0        4.000453    1.195637    1.173042
     27          1           0        2.126025   -1.456361   -0.308160
     28          1           0       -0.324614   -1.490090   -0.514389
     29          1           0       -4.182039   -1.562920   -1.229989
     30          1           0       -4.337192    0.217338   -1.293783
     31          1           0       -4.543839    0.317251    1.179898
     32          1           0       -4.289190   -1.433891    1.301396
     33          1           0       -0.461951    2.743887    0.181712
     34          1           0        2.009277    2.786652    0.391432
 ---------------------------------------------------------------------

 SCF Done:  E(RB3LYP) =  -748.991302232     A.U. after   16 cycles

 Excitation energies and oscillator strengths:

 Excited State   1:      Triplet-A      3.3913 eV  365.60 nm  f=0.0000  <S**2>=2.000
      61 -> 64         0.27550
      62 -> 63         0.63466
 This state for optimization and/or second-order correction.
 Total Energy, E(TD-HF/TD-DFT) =  -748.866674556
 Copying the excited state density for this state as the 1-particle RhoCI density.

 Excited State   2:      Triplet-A      4.1019 eV  302.26 nm  f=0.0000  <S**2>=2.000
      61 -> 63         0.68934
      62 -> 64         0.12382

 Excited State   3:      Triplet-A      4.4183 eV  280.62 nm  f=0.0000  <S**2>=2.000
      61 -> 64         0.63614
      62 -> 63        -0.28640

 Excited State   4:      Singlet-A      4.8151 eV  257.49 nm  f=0.0149  <S**2>=0.000
      61 -> 63         0.62439
      62 -> 64        -0.31881

 Excited State   5:      Singlet-A      4.9425 eV  250.85 nm  f=0.0003  <S**2>=0.000
      60 -> 63         0.69118

 Excited State   6:      Singlet-A      5.0881 eV  243.67 nm  f=0.4526  <S**2>=0.000
      61 -> 64         0.16339
      62 -> 63         0.67792

 The electronic state is 1-A.
 Alpha  occ. eigenvalues --  -19.21910 -19.15989 -14.34973 -10.33830 -10.27675
 Alpha  occ. eigenvalues --  -10.25006 -10.24346 -10.22513 -10.22115 -10.21658
 Alpha  occ. eigenvalues --  -10.21389 -10.20980 -10.20921 -10.20713 -10.19882
 Alpha  occ. eigenvalues --  -10.19663 -10.18692  -1.12513  -1.03702  -0.91769
 Alpha  occ. eigenvalues --   -0.88219  -0.82846  -0.81748  -0.78713  -0.76687
 Alpha  occ. eigenvalues --   -0.73995  -0.70912  -0.66326  -0.63087  -0.61612
 Alpha  occ. eigenvalues --   -0.59327  -0.57934  -0.55589  -0.54018  -0.50298
 Alpha  occ. eigenvalues --   -0.49934  -0.48939  -0.47732  -0.47347  -0.46770
 Alpha  occ. eigenvalues --   -0.45849  -0.44133  -0.43847  -0.43083  -0.42920
 Alpha  occ. eigenvalues --   -0.42292  -0.39722  -0.38546  -0.38108  -0.37606
 Alpha  occ. eigenvalues --   -0.37070  -0.36311  -0.36177  -0.34793  -0.34353
 Alpha  occ. eigenvalues --   -0.34078  -0.33924  -0.33703  -0.32217  -0.29838
 Alpha  occ. eigenvalues --   -0.27339  -0.26609
 Alpha virt. eigenvalues --   -0.06685  -0.02872  -0.00718   0.00306   0.00782
 Alpha virt. eigenvalues --    0.01105   0.01322   0.01709   0.02041   0.02272
 Alpha virt. eigenvalues --    0.02698   0.03095   0.03362   0.03935   0.04196

 Mulliken charges:
               1
     1  C   -0.715167
     2  C   -0.353463
     3  C   -0.179383
     4  C   -0.732267
     5  C    0.728774
     6  C   -0.931916
     7  C   -0.034705
     8  C    0.006270
     9  C    0.387413
    10  O   -0.481009
    11  O   -0.232199
    12  C   -0.086607
    13  C    0.098426
    14  C    0.094462
    15  N   -0.511878
    16  C   -0.081397
    17  C    0.377468
    18  H    0.147203
    19  H    0.146315
    20  H    0.146391
    21  H    0.139745
    22  H    0.139649
    23  H    0.145920
    24  H    0.145956
    25  H    0.163788
    26  H    0.163328
    27  H    0.127039
    28  H    0.144892
    29  H    0.159651
    30  H    0.184739
    31  H    0.216140
    32  H    0.194731
    33  H    0.154620
    34  H    0.127073
 Sum of Mulliken charges =  -0.00000

 Dipole moment (field-independent basis, Debye):
    X=              6.6109    Y=             -0.8426    Z=              0.2295  Tot=              6.6683
 Quadrupole moment (field-independent basis, Debye-Ang):
   XX=           -140.5219   YY=           -102.7568   ZZ=           -101.9566
   XY=              0.5899   XZ=              1.4375   YZ=              1.4333

 Normal termination of Gaussian 16 at Thu Jul 31 20:15:32 2025.
