 Gaussian 16, Revision C.02,
 Gaussian 16:  ES64L-G16RevC.02  7-Dec-2021

 ----------------------------------------------------------
 # td=(50-50,nstates=3) b3lyp/6-31+g(d,p) geom=connectivity
 ----------------------------------------------------------

 -------------------
 Title Card Required
 -------------------
 Symbolic Z-matrix:
 Charge =  0 Multiplicity = 1

                         Standard orientation:
 ---------------------------------------------------------------------
 Center     Atomic      Atomic             Coordinates (Angstroms)
 Number     Number       Type             X           Y           Z
 ---------------------------------------------------------------------
      1          6           0       -3.122374    5.508338    1.766121
      2          6           0       -3.315732    4.577311    0.564177
      3          6           0       -2.499405    3.283662    0.678475
      4          6           0       -2.710666    2.355016   -0.541303
      5          6           0       -1.930598    1.097114   -0.460336
      6          8           0       -0.565362    1.226191   -0.539842
      7          6           0       -0.020148   -0.026920   -0.377303
      8          6           0        1.337366   -0.081640   -0.170923
      9          8           0        2.075103    1.016071   -0.557627
     10          6           0        3.377120    0.804585   -0.205268
     11          6           0        4.332983    1.745889   -0.522672
     12          6           0        5.694613    1.503514   -0.180586
     13          7           0        6.801180    1.288361    0.113212
     14          6           0        3.987940    2.959827   -1.182324
     15          7           0        3.704716    3.954903   -1.717384
     16          6           0        3.481182   -0.439139    0.487326
     17          6           0        2.226545   -0.979601    0.522340
     18         35           0        1.737188   -2.455608    1.554072
     19          6           0       -1.081635   -1.014220   -0.411473
     20          6           0       -0.934255   -2.367704   -0.709374
     21          6           0       -1.991657   -3.320958   -0.622127
     22          7           0       -2.782852   -4.173586   -0.547506
     23          6           0        0.274282   -2.877307   -1.267920
     24          7           0        1.238358   -3.296254   -1.772550
     25          6           0       -2.282292   -0.212828   -0.325089
     26         35           0       -4.054158   -0.816847   -0.226768
     27          1           0       -3.716041    6.421591    1.656797
     28          1           0       -3.429256    5.021354    2.698970
     29          1           0       -2.072700    5.804590    1.873693
     30          1           0       -3.031777    5.103286   -0.357260
     31          1           0       -4.380154    4.326611    0.461094
     32          1           0       -2.784079    2.745994    1.592058
     33          1           0       -1.433654    3.524725    0.769680
     34          1           0       -2.416900    2.884011   -1.457398
     35          1           0       -3.768141    2.093277   -0.636138
     36          1           0        4.379304   -0.831193    0.941753
 ---------------------------------------------------------------------

 SCF Done:  E(RB3LYP) =  -6204.74785231     A.U. after   17 cycles

 Excitation energies and oscillator strengths:

 Excited State   1:      Triplet-A      0.4736 eV 2617.66 nm  f=0.0000  <S**2>=2.000
     115 ->117        -0.12482
     116 ->117         0.78549
     116 <-117         0.37479
 This state for optimization and/or second-order correction.
 Total Energy, E(TD-HF/TD-DFT) =  -6204.73044617
 Copying the excited state density for this state as the 1-particle RhoCI density.

 Excited State   2:      Triplet-A      1.6824 eV  736.96 nm  f=0.0000  <S**2>=2.000
     115 ->117         0.67002
     116 ->118         0.16284

 Excited State   3:      Singlet-A      2.0140 eV  615.60 nm  f=0.2356  <S**2>=0.000
     115 ->117         0.29281
     116 ->117         0.65023
     116 <-117        -0.12809

 Excited State   4:      Singlet-A      2.6215 eV  472.95 nm  f=0.5308  <S**2>=0.000
     115 ->117         0.62931
     116 ->117        -0.31238
     116 ->118        -0.10761
     116 <-117         0.10129

 Excited State   5:      Triplet-A      2.7417 eV  452.22 nm  f=0.0000  <S**2>=2.000
     113 ->117        -0.12875
     114 ->117         0.62327
     115 ->117         0.12093
     115 ->118         0.11865
     116 ->118        -0.18151

 Excited State   6:      Singlet-A      3.2728 eV  378.83 nm  f=0.0205  <S**2>=0.000
     114 ->117         0.67067
     116 ->118         0.19120

 The electronic state is 1-A.
 Alpha  occ. eigenvalues -- -482.99544-482.97745 -61.95334 -61.93569 -56.46819
 Alpha  occ. eigenvalues --  -56.46407 -56.46383 -56.45102 -56.44686 -56.44643
 Alpha  occ. eigenvalues --  -19.28925 -19.27864 -14.37887 -14.37657 -14.37641
 Alpha  occ. eigenvalues --  -14.37268 -10.34700 -10.34525 -10.33758 -10.32805
 Alpha  occ. eigenvalues --  -10.32405 -10.30683 -10.30649 -10.30375 -10.29493
 Alpha  occ. eigenvalues --  -10.27695 -10.27300 -10.27102 -10.27019 -10.26675
 Alpha  occ. eigenvalues --  -10.24228 -10.22314 -10.21192 -10.19776  -8.65488
 Alpha  occ. eigenvalues --   -8.63797  -6.60721  -6.59327  -6.59266  -6.59039
 Alpha  occ. eigenvalues --   -6.57631  -6.57618  -2.72251  -2.71855  -2.71809
 Alpha  occ. eigenvalues --   -2.70696  -2.70695  -2.70570  -2.70161  -2.70151
 Alpha  occ. eigenvalues --   -2.69027  -2.69027  -1.19540  -1.17561  -0.95409
 Alpha  occ. eigenvalues --   -0.95279  -0.93738  -0.93495  -0.91952  -0.91041
 Alpha  occ. eigenvalues --   -0.90003  -0.87301  -0.84086  -0.82951  -0.82764
 Alpha  occ. eigenvalues --   -0.80082  -0.78756  -0.74260  -0.69561  -0.68696
 Alpha  occ. eigenvalues --   -0.66884  -0.65400  -0.63833  -0.62139  -0.61377
 Alpha  occ. eigenvalues --   -0.59471  -0.59127  -0.57163  -0.54739  -0.54178
 Alpha  occ. eigenvalues --   -0.51853  -0.50967  -0.49931  -0.48594  -0.47081
 Alpha  occ. eigenvalues --   -0.46611  -0.45721  -0.45702  -0.44914  -0.44220
 Alpha  occ. eigenvalues --   -0.43904  -0.43504  -0.41373  -0.41007  -0.40211
 Alpha  occ. eigenvalues --   -0.40192  -0.39682  -0.39342  -0.39010  -0.38740
 Alpha  occ. eigenvalues --   -0.37906  -0.37811  -0.37441  -0.37231  -0.37215
 Alpha  occ. eigenvalues --   -0.36550  -0.36487  -0.36237  -0.35636  -0.35076
 Alpha  occ. eigenvalues --   -0.34263  -0.32994  -0.32596  -0.31877  -0.28102
 Alpha  occ. eigenvalues --   -0.25163
 Alpha virt. eigenvalues --   -0.17577  -0.09929  -0.05665  -0.04439  -0.04199
 Alpha virt. eigenvalues --   -0.03453  -0.03175  -0.02666  -0.02453  -0.00900
 Alpha virt. eigenvalues --   -0.00075   0.00086   0.00269   0.00494   0.00802

 Mulliken charges:
               1
     1  C   -0.692365
     2  C   -0.137410
     3  C   -0.212399
     4  C   -0.669102
     5  C   -0.028734
     6  O   -0.168888
     7  C   -0.455161
     8  C   -0.806607
     9  O   -0.245950
    10  C    0.968749
    11  C    0.611574
    12  C   -0.227475
    13  N   -0.485870
    14  C   -0.306891
    15  N   -0.480496
    16  C   -0.197510
    17  C    0.742595
    18  Br   0.172136
    19  C    0.464737
    20  C    0.932581
    21  C   -0.057378
    22  N   -0.436401
    23  C   -0.420775
    24  N   -0.419595
    25  C    0.791905
    26  Br   0.170251
    27  H    0.152578
    28  H    0.148571
    29  H    0.151525
    30  H    0.144168
    31  H    0.142567
    32  H    0.150954
    33  H    0.161206
    34  H    0.175501
    35  H    0.167316
    36  H    0.200094
 Sum of Mulliken charges =  -0.00000

 Dipole moment (field-independent basis, Debye):
    X=             -4.8109    Y=              2.8590    Z=              3.5319  Tot=              6.6176
 Quadrupole moment (field-independent basis, Debye-Ang):
   XX=           -205.4466   YY=           -203.5792   ZZ=           -178.9589
   XY=            -31.4216   XZ=              8.0347   YZ=             -2.2252

 Normal termination of Gaussian 16 at Thu Jul 31 20:24:01 2025.
