 Gaussian 16, Revision C.02,
 Gaussian 16:  ES64L-G16RevC.02  7-Dec-2021

 ----------------------------------------------------------
 # td=(50-50,nstates=3) b3lyp/6-31+g(d,p) geom=connectivity
 ----------------------------------------------------------

 -------------------
 Title Card Required
 -------------------
 Symbolic Z-matrix:
 Charge =  0 Multiplicity = 1

                         Standard orientation:
 ---------------------------------------------------------------------
 Center     Atomic      Atomic             Coordinates (Angstroms)
 Number     Number       Type             X           Y           Z
 ---------------------------------------------------------------------
      1          6           0       -4.634525    0.662322   -1.260211
      2          6           0       -3.890760   -0.400048   -0.894255
      3          6           0       -4.081367   -1.662673   -1.565800
      4          7           0       -4.232383   -2.671969   -2.123445
      5          6           0       -2.859942   -0.361244    0.155720
      6          6           0       -1.877224    0.519717    0.429186
      7          6           0       -1.535087    1.783005   -0.324026
      8          6           0       -1.973505    3.051692    0.439781
      9          6           0       -0.041272    1.833593   -0.751988
     10          6           0        0.969123    2.319681    0.304494
     11          6           0        2.410827    1.969915   -0.051738
     12          8           0        2.539961    0.547908    0.051106
     13          7           0        3.868565    0.144590   -0.321993
     14          6           0        3.774287   -0.878459   -1.376960
     15          6           0        5.160873   -1.542962   -1.327263
     16          6           0        5.644779   -1.323885    0.141805
     17          6           0        4.493288   -0.556313    0.813358
     18          6           0       -1.115684   -0.038709    1.607845
     19          6           0       -1.843984   -1.336728    1.921320
     20          8           0       -1.640568   -2.147555    2.783392
     21          8           0       -2.871650   -1.475607    1.006414
     22          1           0       -4.544704    1.610347   -0.743152
     23          1           0       -5.348991    0.591199   -2.072631
     24          1           0       -2.116529    1.751443   -1.253312
     25          1           0       -1.732401    3.949935   -0.139822
     26          1           0       -3.052590    3.048379    0.624326
     27          1           0       -1.475360    3.137940    1.410592
     28          1           0        0.253598    0.838376   -1.101756
     29          1           0        0.032372    2.498340   -1.622911
     30          1           0        0.902716    3.408377    0.418491
     31          1           0        0.756382    1.895185    1.291844
     32          1           0        3.111983    2.456287    0.639310
     33          1           0        2.661303    2.291650   -1.072237
     34          1           0        3.539421   -0.413822   -2.338414
     35          1           0        2.976664   -1.599223   -1.133231
     36          1           0        5.101126   -2.601437   -1.594470
     37          1           0        5.846345   -1.064694   -2.032375
     38          1           0        6.565937   -0.734778    0.158298
     39          1           0        5.847621   -2.264874    0.660206
     40          1           0        3.768340   -1.245974    1.275567
     41          1           0        4.821138    0.160815    1.570787
     42          1           0       -0.065174   -0.257967    1.382032
     43          1           0       -1.123384    0.604758    2.496021
 ---------------------------------------------------------------------

 SCF Done:  E(RB3LYP) =  -958.080048107     A.U. after   15 cycles

 Excitation energies and oscillator strengths:

 Excited State   1:      Triplet-A      2.6702 eV  464.32 nm  f=0.0000  <S**2>=2.000
      74 -> 79         0.26198
      77 -> 79         0.62484
      77 -> 80         0.10281
 This state for optimization and/or second-order correction.
 Total Energy, E(TD-HF/TD-DFT) =  -957.981918231
 Copying the excited state density for this state as the 1-particle RhoCI density.

 Excited State   2:      Triplet-A      3.6754 eV  337.34 nm  f=0.0000  <S**2>=2.000
      74 -> 79         0.52401
      75 -> 79         0.19776
      77 -> 79        -0.16711
      77 -> 80        -0.30686
      77 -> 85         0.10279

 Excited State   3:      Singlet-A      3.9331 eV  315.23 nm  f=0.0023  <S**2>=0.000
      78 -> 79         0.70457

 Excited State   4:      Triplet-A      3.9337 eV  315.19 nm  f=0.0000  <S**2>=2.000
      78 -> 79         0.70596

 Excited State   5:      Singlet-A      4.0143 eV  308.85 nm  f=0.0915  <S**2>=0.000
      74 -> 79        -0.10412
      77 -> 79         0.68926

 Excited State   6:      Singlet-A      4.7196 eV  262.70 nm  f=0.0001  <S**2>=0.000
      76 -> 79         0.70596

 The electronic state is 1-A.
 Alpha  occ. eigenvalues --  -19.22393 -19.18781 -19.16214 -14.38516 -14.35537
 Alpha  occ. eigenvalues --  -10.33804 -10.28215 -10.27277 -10.24663 -10.24290
 Alpha  occ. eigenvalues --  -10.24258 -10.22982 -10.22932 -10.22645 -10.21605
 Alpha  occ. eigenvalues --  -10.21592 -10.20395 -10.20388 -10.20360 -10.19692
 Alpha  occ. eigenvalues --  -10.19674  -1.13230  -1.07513  -1.05231  -0.92254
 Alpha  occ. eigenvalues --   -0.90171  -0.86701  -0.84382  -0.80874  -0.77942
 Alpha  occ. eigenvalues --   -0.74820  -0.73998  -0.73584  -0.69422  -0.67991
 Alpha  occ. eigenvalues --   -0.64195  -0.61633  -0.59846  -0.59195  -0.59149
 Alpha  occ. eigenvalues --   -0.57493  -0.54554  -0.53038  -0.51019  -0.50163
 Alpha  occ. eigenvalues --   -0.49658  -0.48292  -0.48033  -0.47113  -0.46406
 Alpha  occ. eigenvalues --   -0.45164  -0.44366  -0.44057  -0.43453  -0.42552
 Alpha  occ. eigenvalues --   -0.42257  -0.41612  -0.41246  -0.40462  -0.39810
 Alpha  occ. eigenvalues --   -0.39357  -0.38765  -0.37955  -0.37496  -0.37061
 Alpha  occ. eigenvalues --   -0.36619  -0.36029  -0.35402  -0.35068  -0.34885
 Alpha  occ. eigenvalues --   -0.34708  -0.33980  -0.33400  -0.30708  -0.29148
 Alpha  occ. eigenvalues --   -0.27334  -0.25281  -0.24262
 Alpha virt. eigenvalues --   -0.08417  -0.02979  -0.01630  -0.00494   0.00115
 Alpha virt. eigenvalues --    0.00342   0.00467   0.01070   0.01774   0.02223
 Alpha virt. eigenvalues --    0.02490   0.02598   0.03065   0.03535   0.03898

 Mulliken charges:
               1
     1  C   -0.292786
     2  C    0.366905
     3  C    0.017886
     4  N   -0.502310
     5  C    0.397672
     6  C   -0.238455
     7  C    0.204395
     8  C   -0.510769
     9  C   -0.536846
    10  C    0.007617
    11  C   -0.330614
    12  O   -0.018873
    13  N   -0.342937
    14  C   -0.162146
    15  C   -0.357970
    16  C   -0.336608
    17  C   -0.178380
    18  C   -0.227636
    19  C    0.425387
    20  O   -0.466755
    21  O   -0.271995
    22  H    0.155863
    23  H    0.167060
    24  H    0.128062
    25  H    0.152774
    26  H    0.139806
    27  H    0.157029
    28  H    0.168089
    29  H    0.143033
    30  H    0.147444
    31  H    0.146703
    32  H    0.128895
    33  H    0.130688
    34  H    0.134258
    35  H    0.148586
    36  H    0.149342
    37  H    0.152920
    38  H    0.152633
    39  H    0.148752
    40  H    0.149476
    41  H    0.134223
    42  H    0.223546
    43  H    0.196036
 Sum of Mulliken charges =  -0.00000

 Dipole moment (field-independent basis, Debye):
    X=              2.7532    Y=              7.1252    Z=             -0.9248  Tot=              7.6944
 Quadrupole moment (field-independent basis, Debye-Ang):
   XX=           -123.4838   YY=           -138.2090   ZZ=           -136.4023
   XY=            -27.4495   XZ=              0.4070   YZ=              1.3594

 Normal termination of Gaussian 16 at Thu Jul 31 20:17:20 2025.
