 Gaussian 16, Revision C.02,
 Gaussian 16:  ES64L-G16RevC.02  7-Dec-2021

 ----------------------------------------------------------
 # td=(50-50,nstates=3) b3lyp/6-31+g(d,p) geom=connectivity
 ----------------------------------------------------------

 -------------------
 Title Card Required
 -------------------
 Symbolic Z-matrix:
 Charge =  0 Multiplicity = 1

                         Standard orientation:
 ---------------------------------------------------------------------
 Center     Atomic      Atomic             Coordinates (Angstroms)
 Number     Number       Type             X           Y           Z
 ---------------------------------------------------------------------
      1          6           0       -0.477481    3.537212    0.503718
      2          6           0        0.300864    2.256663    0.559190
      3          6           0        1.310435    1.940578   -0.265633
      4          6           0        2.121715    0.707487   -0.227410
      5          6           0        3.504194    0.826754   -0.461507
      6          6           0        4.366758   -0.261989   -0.352725
      7          6           0        3.861561   -1.517848   -0.007559
      8          6           0        2.490859   -1.671572    0.190894
      9          6           0        1.613697   -0.582015    0.065168
     10          6           0        0.167449   -0.865824    0.181370
     11          7           0       -0.320803   -1.582267    1.170921
     12          8           0       -1.684533   -1.706403    0.850180
     13          6           0       -1.862302   -1.040113   -0.303838
     14          6           0       -3.223062   -1.001755   -0.899451
     15         17           0       -4.265706    0.263929   -0.110965
     16          7           0       -0.774755   -0.503670   -0.767972
     17          1           0       -0.427111    4.072672    1.460322
     18          1           0       -0.107275    4.201640   -0.283276
     19          1           0       -1.539626    3.337494    0.311099
     20          1           0        0.007951    1.553134    1.337848
     21          1           0        1.625426    2.678324   -1.004527
     22          1           0        3.905282    1.806707   -0.706016
     23          1           0        5.430017   -0.128780   -0.530282
     24          1           0        4.523280   -2.373326    0.086286
     25          1           0        2.078965   -2.648581    0.422127
     26          1           0       -3.146823   -0.744546   -1.954048
     27          1           0       -3.736053   -1.954218   -0.768515
 ---------------------------------------------------------------------

 SCF Done:  E(RB3LYP) =  -1108.81124558     A.U. after   16 cycles

 Excitation energies and oscillator strengths:

 Excited State   1:      Triplet-A      3.0148 eV  411.25 nm  f=0.0000  <S**2>=2.000
      60 -> 64        -0.16068
      61 -> 62        -0.22667
      61 -> 63         0.56873
      61 -> 64         0.21437
 This state for optimization and/or second-order correction.
 Total Energy, E(TD-HF/TD-DFT) =  -1108.70045268
 Copying the excited state density for this state as the 1-particle RhoCI density.

 Excited State   2:      Triplet-A      3.6803 eV  336.88 nm  f=0.0000  <S**2>=2.000
      58 -> 62        -0.24211
      60 -> 62         0.30641
      60 -> 63        -0.14261
      61 -> 62         0.43193
      61 -> 63         0.17362
      61 -> 64         0.20083

 Excited State   3:      Triplet-A      3.8697 eV  320.40 nm  f=0.0000  <S**2>=2.000
      59 -> 63         0.10756
      59 -> 64         0.13543
      60 -> 62        -0.24338
      60 -> 63         0.24801
      60 -> 64        -0.32778
      61 -> 62         0.40665
      61 -> 64         0.15623

 Excited State   4:      Singlet-A      3.9565 eV  313.37 nm  f=0.0297  <S**2>=0.000
      61 -> 62         0.70018

 Excited State   5:      Singlet-A      4.4920 eV  276.01 nm  f=0.0926  <S**2>=0.000
      60 -> 63        -0.12006
      60 -> 64        -0.12262
      61 -> 63         0.61377
      61 -> 64        -0.28606

 Excited State   6:      Singlet-A      4.7516 eV  260.93 nm  f=0.0527  <S**2>=0.000
      60 -> 62         0.55770
      60 -> 63        -0.15074
      61 -> 63        -0.23797
      61 -> 64        -0.30571

 The electronic state is 1-A.
 Alpha  occ. eigenvalues -- -101.56215 -19.26811 -14.40816 -14.36521 -10.31789
 Alpha  occ. eigenvalues --  -10.28630 -10.27819 -10.22342 -10.22083 -10.20944
 Alpha  occ. eigenvalues --  -10.20827 -10.20535 -10.20500 -10.20219 -10.19770
 Alpha  occ. eigenvalues --  -10.18995  -9.47730  -7.24183  -7.23135  -7.23110
 Alpha  occ. eigenvalues --   -1.18378  -0.96140  -0.91017  -0.87630  -0.86158
 Alpha  occ. eigenvalues --   -0.80999  -0.77215  -0.76275  -0.73790  -0.69459
 Alpha  occ. eigenvalues --   -0.66606  -0.63355  -0.61246  -0.60091  -0.56608
 Alpha  occ. eigenvalues --   -0.53947  -0.51454  -0.50891  -0.48687  -0.47392
 Alpha  occ. eigenvalues --   -0.47200  -0.46067  -0.44692  -0.43956  -0.42998
 Alpha  occ. eigenvalues --   -0.42657  -0.41724  -0.39566  -0.38351  -0.36856
 Alpha  occ. eigenvalues --   -0.36524  -0.36076  -0.35787  -0.34188  -0.32613
 Alpha  occ. eigenvalues --   -0.32125  -0.31471  -0.30846  -0.29273  -0.26455
 Alpha  occ. eigenvalues --   -0.23437
 Alpha virt. eigenvalues --   -0.06710  -0.04913  -0.03074  -0.00595   0.00505
 Alpha virt. eigenvalues --    0.00920   0.01029   0.02041   0.02595   0.03248
 Alpha virt. eigenvalues --    0.03543   0.03983   0.04346   0.04634   0.05362

 Mulliken charges:
               1
     1  C   -0.788158
     2  C    0.303342
     3  C   -0.118496
     4  C   -0.176375
     5  C    0.195418
     6  C   -0.087886
     7  C   -0.171619
     8  C    0.253927
     9  C   -0.627684
    10  C    0.347520
    11  N   -0.406334
    12  O    0.109494
    13  C    0.088740
    14  C   -0.513503
    15  Cl   0.061544
    16  N   -0.163587
    17  H    0.157070
    18  H    0.148429
    19  H    0.164398
    20  H    0.125707
    21  H    0.119615
    22  H    0.128469
    23  H    0.129995
    24  H    0.131472
    25  H    0.144158
    26  H    0.225092
    27  H    0.219252
 Sum of Mulliken charges =  -0.00000

 Dipole moment (field-independent basis, Debye):
    X=              0.7744    Y=              0.0748    Z=             -1.8027  Tot=              1.9634
 Quadrupole moment (field-independent basis, Debye-Ang):
   XX=            -92.6469   YY=            -93.8154   ZZ=           -105.5370
   XY=              2.9731   XZ=              2.5440   YZ=              4.1935

 Normal termination of Gaussian 16 at Mon Sep 22 01:30:08 2025.
