 Gaussian 16, Revision C.02,
 Gaussian 16:  ES64L-G16RevC.02  7-Dec-2021

 ----------------------------------------------------------
 # td=(50-50,nstates=3) b3lyp/6-31+g(d,p) geom=connectivity
 ----------------------------------------------------------

 -------------------
 Title Card Required
 -------------------
 Symbolic Z-matrix:
 Charge =  0 Multiplicity = 1

                         Standard orientation:
 ---------------------------------------------------------------------
 Center     Atomic      Atomic             Coordinates (Angstroms)
 Number     Number       Type             X           Y           Z
 ---------------------------------------------------------------------
      1          6           0       -5.136310    1.409927   -0.686538
      2          6           0       -4.796628    0.235352   -1.539265
      3          7           0       -4.004336   -0.743194   -1.197130
      4          8           0       -3.685229   -1.737668   -1.956894
      5          6           0       -3.438428   -0.867206    0.144969
      6          6           0       -4.129015   -1.699222    1.023882
      7          6           0       -3.609835   -1.967818    2.290185
      8          6           0       -2.379784   -1.423775    2.668889
      9          6           0       -1.680118   -0.617468    1.776146
     10          6           0       -2.193858   -0.312595    0.503119
     11          6           0       -1.439184    0.612746   -0.385414
     12          8           0       -1.959620    1.277144   -1.266845
     13          6           0        0.048858    0.814935   -0.134505
     14          6           0        0.578119    2.079772    0.186980
     15          6           0       -0.239218    3.308355    0.422446
     16          7           0        1.921228    2.236257    0.333115
     17          8           0        2.426330    3.377078    0.645279
     18          6           0        2.762771    1.134934    0.142716
     19          6           0        4.155647    1.280965    0.282896
     20          6           0        4.979551    0.190459    0.089270
     21          6           0        4.422006   -1.063390   -0.250093
     22         17           0        5.495350   -2.423544   -0.491661
     23          6           0        3.060122   -1.234456   -0.396017
     24          6           0        2.223205   -0.122952   -0.192115
     25          7           0        0.837262   -0.270758   -0.331641
     26          8           0        0.343605   -1.408121   -0.656040
     27          1           0       -6.216286    1.595900   -0.712078
     28          1           0       -4.836448    1.274632    0.354702
     29          1           0       -4.638398    2.310583   -1.069175
     30          1           0       -5.161378    0.161324   -2.558600
     31          1           0       -5.064623   -2.141167    0.697815
     32          1           0       -4.159939   -2.608159    2.972779
     33          1           0       -1.964530   -1.633765    3.649301
     34          1           0       -0.720153   -0.204892    2.070020
     35          1           0       -1.304491    3.104123    0.344053
     36          1           0        0.000576    3.723870    1.406683
     37          1           0        0.031609    4.077396   -0.308902
     38          1           0        4.542337    2.259100    0.540108
     39          1           0        6.054208    0.288428    0.192960
     40          1           0        2.609394   -2.182094   -0.661139
 ---------------------------------------------------------------------

 SCF Done:  E(RB3LYP) =  -1619.55777192     A.U. after   18 cycles

 Excitation energies and oscillator strengths:

 Excited State   1:      Triplet-A      0.9369 eV 1323.38 nm  f=0.0000  <S**2>=2.000
      95 -> 97         0.71468
      95 -> 98        -0.20552
      95 ->101        -0.16139
      95 <- 97         0.27888
 This state for optimization and/or second-order correction.
 Total Energy, E(TD-HF/TD-DFT) =  -1619.52334242
 Copying the excited state density for this state as the 1-particle RhoCI density.

 Excited State   2:      Triplet-A      2.1603 eV  573.91 nm  f=0.0000  <S**2>=2.000
      96 -> 97         0.31277
      96 -> 98         0.11895
      96 ->100         0.21971
      96 ->102         0.58678
      96 <-102         0.15716

 Excited State   3:      Triplet-A      2.2025 eV  562.92 nm  f=0.0000  <S**2>=2.000
      96 -> 97         0.57069
      96 -> 98         0.22021
      96 ->102        -0.32701

 Excited State   4:      Singlet-A      2.2328 eV  555.30 nm  f=0.0012  <S**2>=0.000
      96 -> 97         0.67611
      96 -> 98         0.19776

 Excited State   5:      Singlet-A      2.7165 eV  456.41 nm  f=0.0148  <S**2>=0.000
      95 -> 97         0.42298
      95 -> 98         0.30413
      96 -> 97        -0.12111
      96 -> 98         0.44628

 Excited State   6:      Singlet-A      2.7440 eV  451.84 nm  f=0.0148  <S**2>=0.000
      95 -> 97        -0.36073
      95 -> 98        -0.29519
      96 -> 97        -0.16316
      96 -> 98         0.49305

 The electronic state is 1-A.
 Alpha  occ. eigenvalues -- -101.57863 -19.18269 -19.16258 -19.15810 -19.12386
 Alpha  occ. eigenvalues --  -14.51689 -14.50874 -14.47764 -10.32473 -10.29362
 Alpha  occ. eigenvalues --  -10.28776 -10.28655 -10.28438 -10.28415 -10.26768
 Alpha  occ. eigenvalues --  -10.24550 -10.24212 -10.24161 -10.24098 -10.24015
 Alpha  occ. eigenvalues --  -10.23228 -10.22984 -10.22657 -10.22541 -10.21426
 Alpha  occ. eigenvalues --  -10.20845  -9.49358  -7.25781  -7.24794  -7.24746
 Alpha  occ. eigenvalues --   -1.14901  -1.13475  -1.10060  -1.08145  -0.95650
 Alpha  occ. eigenvalues --   -0.92398  -0.90210  -0.88029  -0.87035  -0.86485
 Alpha  occ. eigenvalues --   -0.82265  -0.80997  -0.79730  -0.79214  -0.74736
 Alpha  occ. eigenvalues --   -0.73625  -0.73080  -0.68257  -0.66969  -0.65786
 Alpha  occ. eigenvalues --   -0.64697  -0.62844  -0.61998  -0.58715  -0.56644
 Alpha  occ. eigenvalues --   -0.54983  -0.53297  -0.52627  -0.51785  -0.50695
 Alpha  occ. eigenvalues --   -0.50423  -0.49417  -0.49291  -0.48632  -0.48589
 Alpha  occ. eigenvalues --   -0.48057  -0.47844  -0.47024  -0.46351  -0.45104
 Alpha  occ. eigenvalues --   -0.44054  -0.43609  -0.43221  -0.42591  -0.41857
 Alpha  occ. eigenvalues --   -0.41797  -0.41737  -0.41118  -0.40673  -0.40365
 Alpha  occ. eigenvalues --   -0.38971  -0.38773  -0.38224  -0.36034  -0.33999
 Alpha  occ. eigenvalues --   -0.31488  -0.30518  -0.29963  -0.29422  -0.29264
 Alpha  occ. eigenvalues --   -0.28546  -0.28305  -0.28002  -0.24243  -0.22740
 Alpha  occ. eigenvalues --   -0.21854
 Alpha virt. eigenvalues --   -0.11569  -0.09282  -0.06817  -0.04432  -0.03534
 Alpha virt. eigenvalues --   -0.03107  -0.01402  -0.00979  -0.00545  -0.00056
 Alpha virt. eigenvalues --    0.00256   0.00777   0.01962   0.02153   0.02390

 Mulliken charges:
               1
     1  C   -0.330559
     2  C   -0.002323
     3  N   -0.024637
     4  O   -0.172918
     5  C   -0.080382
     6  C    0.167525
     7  C   -0.166296
     8  C   -0.285982
     9  C   -0.664735
    10  C    0.924734
    11  C   -0.452578
    12  O   -0.302793
    13  C    0.579926
    14  C    0.264149
    15  C   -0.689838
    16  N   -0.447815
    17  O    0.064967
    18  C    0.076260
    19  C   -0.666295
    20  C    0.010685
    21  C    0.276234
    22  Cl   0.277738
    23  C   -0.560356
    24  C    0.271055
    25  N   -0.534832
    26  O    0.184414
    27  H    0.159690
    28  H    0.159880
    29  H    0.183093
    30  H    0.157130
    31  H    0.150397
    32  H    0.141074
    33  H    0.137191
    34  H    0.122738
    35  H    0.156413
    36  H    0.185954
    37  H    0.190353
    38  H    0.185845
    39  H    0.159450
    40  H    0.195443
 Sum of Mulliken charges =  -0.00000

 Dipole moment (field-independent basis, Debye):
    X=             -0.6694    Y=              2.1090    Z=              5.0764  Tot=              5.5377
 Quadrupole moment (field-independent basis, Debye-Ang):
   XX=           -133.2664   YY=           -170.6254   ZZ=           -159.1138
   XY=            -10.2647   XZ=            -12.4055   YZ=            -12.9942

 Normal termination of Gaussian 16 at Mon Sep 22 01:19:07 2025.
