 Gaussian 16, Revision C.02,
 Gaussian 16:  ES64L-G16RevC.02  7-Dec-2021

 ----------------------------------------------------------
 # td=(50-50,nstates=3) b3lyp/6-31+g(d,p) geom=connectivity
 ----------------------------------------------------------

 -------------------
 Title Card Required
 -------------------
 Symbolic Z-matrix:
 Charge =  0 Multiplicity = 1

                         Standard orientation:
 ---------------------------------------------------------------------
 Center     Atomic      Atomic             Coordinates (Angstroms)
 Number     Number       Type             X           Y           Z
 ---------------------------------------------------------------------
      1          6           0       -0.831348    1.658440   -2.234493
      2          6           0        0.058453    1.863111   -0.997538
      3          6           0        1.489758    2.141378   -1.487556
      4          8           0       -0.492420    3.016187   -0.338016
      5          6           0       -0.061902    0.600949   -0.031942
      6          6           0       -1.521690    0.369038    0.187596
      7          6           0       -2.286747   -0.745762    0.074220
      8          6           0       -3.692000   -0.665955    0.380820
      9          7           0       -4.825898   -0.594572    0.631109
     10          6           0       -1.835445   -2.048670   -0.331886
     11          7           0       -1.551845   -3.129650   -0.654332
     12          6           0        0.898662   -0.534262   -0.387821
     13          6           0        1.237400   -1.427807   -1.398213
     14          6           0        2.388828   -2.200213   -1.181188
     15          6           0        3.153759   -2.070655   -0.011079
     16          6           0        2.798276   -1.166559    1.003126
     17          6           0        1.655191   -0.410038    0.771890
     18          6           0        0.754497    0.630895    1.426633
     19          6           0       -0.052329    0.024537    2.592925
     20          6           0        1.399777    1.928201    1.931620
     21          1           0       -1.890839    1.647779   -1.967835
     22          1           0       -0.672567    2.483220   -2.934953
     23          1           0       -0.589355    0.720319   -2.742550
     24          1           0        2.224943    2.215009   -0.685492
     25          1           0        1.481257    3.087462   -2.037341
     26          1           0        1.830103    1.354639   -2.164469
     27          1           0        0.154423    3.362546    0.289561
     28          1           0       -2.049822    1.266532    0.504045
     29          1           0        0.654055   -1.552525   -2.305057
     30          1           0        2.694180   -2.921582   -1.933412
     31          1           0        4.037943   -2.689980    0.110812
     32          1           0        3.396493   -1.078852    1.905810
     33          1           0        0.621378   -0.143699    3.440498
     34          1           0       -0.847218    0.699663    2.929557
     35          1           0       -0.497577   -0.938331    2.334320
     36          1           0        2.045315    1.687626    2.784374
     37          1           0        2.029042    2.430000    1.196041
     38          1           0        0.642966    2.630461    2.300097
 ---------------------------------------------------------------------

 SCF Done:  E(RB3LYP) =  -843.330743365     A.U. after   17 cycles

 Excitation energies and oscillator strengths:

 Excited State   1:      Triplet-A      2.9594 eV  418.94 nm  f=0.0000  <S**2>=2.000
      67 -> 72         0.14386
      68 -> 72        -0.16841
      69 -> 72         0.65094
      70 -> 72        -0.10430
      69 <- 72         0.10532
 This state for optimization and/or second-order correction.
 Total Energy, E(TD-HF/TD-DFT) =  -843.221985832
 Copying the excited state density for this state as the 1-particle RhoCI density.

 Excited State   2:      Triplet-A      3.6813 eV  336.80 nm  f=0.0000  <S**2>=2.000
      70 -> 73         0.37766
      70 -> 74        -0.28695
      71 -> 72         0.13944
      71 -> 73         0.27771
      71 -> 74         0.31464
      71 -> 75        -0.12923
      71 -> 76         0.18783

 Excited State   3:      Triplet-A      3.8014 eV  326.15 nm  f=0.0000  <S**2>=2.000
      71 -> 72         0.67824

 Excited State   4:      Singlet-A      3.8493 eV  322.09 nm  f=0.0050  <S**2>=0.000
      71 -> 72         0.70279

 Excited State   5:      Singlet-A      4.1601 eV  298.03 nm  f=0.0043  <S**2>=0.000
      70 -> 72         0.70289

 Excited State   6:      Singlet-A      4.8661 eV  254.79 nm  f=0.2183  <S**2>=0.000
      67 -> 72        -0.11700
      68 -> 72         0.32622
      69 -> 72         0.60567

 The electronic state is 1-A.
 Alpha  occ. eigenvalues --  -19.17952 -14.36257 -14.36060 -10.28681 -10.28205
 Alpha  occ. eigenvalues --  -10.26148 -10.25577 -10.25407 -10.24984 -10.24709
 Alpha  occ. eigenvalues --  -10.21400 -10.21328 -10.21263 -10.21187 -10.21132
 Alpha  occ. eigenvalues --  -10.21034 -10.20988 -10.20187 -10.19933 -10.19707
 Alpha  occ. eigenvalues --   -1.05136  -0.93740  -0.92232  -0.91343  -0.86111
 Alpha  occ. eigenvalues --   -0.83625  -0.80991  -0.77461  -0.76010  -0.73978
 Alpha  occ. eigenvalues --   -0.71529  -0.70991  -0.67348  -0.64071  -0.61865
 Alpha  occ. eigenvalues --   -0.60714  -0.58417  -0.56259  -0.53786  -0.51883
 Alpha  occ. eigenvalues --   -0.50088  -0.49117  -0.47895  -0.47033  -0.46445
 Alpha  occ. eigenvalues --   -0.45939  -0.44630  -0.43907  -0.42670  -0.41995
 Alpha  occ. eigenvalues --   -0.41208  -0.41055  -0.40634  -0.40586  -0.39720
 Alpha  occ. eigenvalues --   -0.38856  -0.38406  -0.38283  -0.37978  -0.36763
 Alpha  occ. eigenvalues --   -0.36102  -0.36038  -0.35944  -0.34927  -0.34762
 Alpha  occ. eigenvalues --   -0.33611  -0.32738  -0.30978  -0.28503  -0.26918
 Alpha  occ. eigenvalues --   -0.25998
 Alpha virt. eigenvalues --   -0.09135  -0.03923  -0.02885  -0.01625  -0.01195
 Alpha virt. eigenvalues --    0.00062   0.00238   0.00674   0.01693   0.01936
 Alpha virt. eigenvalues --    0.02260   0.02520   0.02791   0.03268   0.03609

 Mulliken charges:
               1
     1  C   -0.392489
     2  C    0.016535
     3  C   -0.362401
     4  O   -0.363596
     5  C   -1.004586
     6  C    1.085258
     7  C    1.008351
     8  C    0.086660
     9  N   -0.485512
    10  C   -0.582921
    11  N   -0.422611
    12  C   -0.818601
    13  C    0.037706
    14  C   -0.082861
    15  C   -0.061354
    16  C    0.063575
    17  C   -0.097963
    18  C    0.346921
    19  C   -0.511943
    20  C   -0.383694
    21  H    0.166246
    22  H    0.157386
    23  H    0.158977
    24  H    0.142628
    25  H    0.164049
    26  H    0.170858
    27  H    0.335802
    28  H    0.183570
    29  H    0.128023
    30  H    0.131587
    31  H    0.130127
    32  H    0.128645
    33  H    0.153953
    34  H    0.154864
    35  H    0.168211
    36  H    0.161104
    37  H    0.134074
    38  H    0.155421
 Sum of Mulliken charges =  -0.00000

 Dipole moment (field-independent basis, Debye):
    X=              6.2943    Y=              3.5272    Z=              0.6503  Tot=              7.2444
 Quadrupole moment (field-independent basis, Debye-Ang):
   XX=           -141.5483   YY=           -130.3650   ZZ=           -112.4878
   XY=             -5.4464   XZ=              4.5252   YZ=              1.7046

 Normal termination of Gaussian 16 at Thu Jul 31 20:11:44 2025.
