 Gaussian 16, Revision C.02,
 Gaussian 16:  ES64L-G16RevC.02  7-Dec-2021

 ----------------------------------------------------------
 # td=(50-50,nstates=3) b3lyp/6-31+g(d,p) geom=connectivity
 ----------------------------------------------------------

 -------------------
 Title Card Required
 -------------------
 Symbolic Z-matrix:
 Charge =  0 Multiplicity = 1

                         Standard orientation:
 ---------------------------------------------------------------------
 Center     Atomic      Atomic             Coordinates (Angstroms)
 Number     Number       Type             X           Y           Z
 ---------------------------------------------------------------------
      1          6           0       -1.647347   -0.849177    0.163668
      2          6           0       -1.126683    0.479112   -0.391921
      3          6           0        0.185748    0.955558    0.270197
      4          6           0        1.309967    0.039272    0.047673
      5          7           0        2.192122   -0.693013   -0.139932
      6          1           0       -2.584988   -1.131668   -0.325273
      7          1           0       -0.928087   -1.658627    0.001443
      8          1           0       -1.839890   -0.780781    1.240704
      9          1           0       -1.871846    1.268501   -0.238318
     10          1           0       -0.969391    0.399630   -1.473600
     11          1           0        0.472503    1.940481   -0.116111
     12          1           0        0.046733    1.064971    1.352976
 ---------------------------------------------------------------------

 SCF Done:  E(RB3LYP) =  -211.400820036     A.U. after   12 cycles

 Excitation energies and oscillator strengths:

 Excited State   1:      Triplet-A      5.8629 eV  211.47 nm  f=0.0000  <S**2>=2.000
      18 -> 21        -0.12735
      18 -> 22         0.18692
      18 -> 23         0.26988
      18 -> 24        -0.25252
      19 -> 20        -0.24911
      19 -> 21         0.24795
      19 -> 23         0.15025
      19 -> 25        -0.29736
 This state for optimization and/or second-order correction.
 Total Energy, E(TD-HF/TD-DFT) =  -211.185363020
 Copying the excited state density for this state as the 1-particle RhoCI density.

 Excited State   2:      Triplet-A      6.6136 eV  187.47 nm  f=0.0000  <S**2>=2.000
      18 -> 20         0.31050
      18 -> 21        -0.24323
      18 -> 23        -0.17162
      18 -> 25         0.29121
      19 -> 21         0.14239
      19 -> 22        -0.17566
      19 -> 23        -0.24359
      19 -> 24         0.23774

 Excited State   3:      Triplet-A      6.6271 eV  187.09 nm  f=0.0000  <S**2>=2.000
      18 -> 21        -0.16589
      18 -> 22         0.21033
      18 -> 23         0.29413
      18 -> 24        -0.28313
      19 -> 20         0.25853
      19 -> 21        -0.21226
      19 -> 23        -0.15122
      19 -> 25         0.24543

 Excited State   4:      Singlet-A      7.4764 eV  165.83 nm  f=0.0000  <S**2>=0.000
      18 -> 20         0.53786
      18 -> 21        -0.22878
      18 -> 23        -0.15178
      18 -> 25         0.26128
      19 -> 23         0.13638
      19 -> 24        -0.11398

 Excited State   5:      Singlet-A      7.6989 eV  161.04 nm  f=0.0204  <S**2>=0.000
      18 -> 21        -0.13320
      18 -> 22         0.14707
      18 -> 23         0.18524
      18 -> 24        -0.17594
      19 -> 20         0.58517
      19 -> 25         0.14466

 Excited State   6:      Singlet-A      7.8463 eV  158.02 nm  f=0.0006  <S**2>=0.000
      18 -> 20        -0.26917
      19 -> 21        -0.25081
      19 -> 22         0.29491
      19 -> 23         0.36509
      19 -> 24        -0.32606

 The electronic state is 1-A.
 Alpha  occ. eigenvalues --  -14.34332 -10.24507 -10.23690 -10.21756 -10.19443
 Alpha  occ. eigenvalues --   -0.91170  -0.82474  -0.73416  -0.63001  -0.52529
 Alpha  occ. eigenvalues --   -0.48671  -0.45815  -0.43445  -0.38391  -0.38005
 Alpha  occ. eigenvalues --   -0.36886  -0.35883  -0.33030  -0.33001
 Alpha virt. eigenvalues --   -0.01192   0.01534   0.01766   0.02291   0.03011
 Alpha virt. eigenvalues --    0.03776   0.05925   0.06745   0.07266   0.07367
 Alpha virt. eigenvalues --    0.07768   0.09920   0.10502   0.11411   0.11813

 Mulliken charges:
               1
     1  C   -0.515345
     2  C   -0.172744
     3  C   -0.189992
     4  C    0.241279
     5  N   -0.507471
     6  H    0.152219
     7  H    0.168617
     8  H    0.146979
     9  H    0.149609
    10  H    0.158057
    11  H    0.183843
    12  H    0.184949
 Sum of Mulliken charges =  -0.00000

 Dipole moment (field-independent basis, Debye):
    X=             -3.4232    Y=              2.3427    Z=              0.4972  Tot=              4.1778
 Quadrupole moment (field-independent basis, Debye-Ang):
   XX=            -39.5625   YY=            -31.3388   ZZ=            -30.9824
   XY=              3.7170   XZ=              0.9176   YZ=              0.1000

 Normal termination of Gaussian 16 at Thu Jul 31 20:17:47 2025.
