 Gaussian 16, Revision C.02,
 Gaussian 16:  ES64L-G16RevC.02  7-Dec-2021

 ----------------------------------------------------------
 # td=(50-50,nstates=3) b3lyp/6-31+g(d,p) geom=connectivity
 ----------------------------------------------------------

 -------------------
 Title Card Required
 -------------------
 Symbolic Z-matrix:
 Charge =  0 Multiplicity = 1

                         Standard orientation:
 ---------------------------------------------------------------------
 Center     Atomic      Atomic             Coordinates (Angstroms)
 Number     Number       Type             X           Y           Z
 ---------------------------------------------------------------------
      1          6           0       -4.796042   -3.307222    0.441571
      2          6           0       -3.613605   -2.422066    0.054390
      3          7           0       -3.300803   -1.335589    1.031167
      4          6           0       -3.226413   -1.718530    2.468526
      5          6           0       -4.541242   -1.754974    3.255845
      6          6           0       -2.900087   -0.122689    0.577205
      7          6           0       -2.313485    0.051242   -0.687987
      8          6           0       -1.314028   -0.793664   -1.298051
      9          8           0       -0.945242   -0.757915   -2.449806
     10          7           0       -0.458949   -1.682199   -0.314201
     11          8           0       -0.722675   -3.009571   -0.506271
     12          6           0        0.974552   -1.342023   -0.474562
     13          6           0        1.530344   -0.332669    0.306117
     14          6           0        2.885302   -0.027082    0.159862
     15          6           0        3.664307   -0.713204   -0.783894
     16          6           0        5.104677   -0.370215   -1.040909
     17          8           0        5.565263   -0.499848   -2.170684
     18          6           0        5.975297    0.131738    0.072545
     19          6           0        7.049943    0.975180   -0.256883
     20          6           0        7.917111    1.432004    0.733323
     21          6           0        7.737803    1.029943    2.061990
     22          6           0        6.686516    0.172119    2.395366
     23          6           0        5.802278   -0.268367    1.407885
     24          6           0        3.066651   -1.711428   -1.573745
     25          6           0        1.725829   -2.046082   -1.410450
     26          6           0       -2.695245    1.244076   -1.584074
     27          6           0       -3.547641    0.755673   -2.694875
     28          7           0       -4.233918    0.367368   -3.546225
     29          8           0       -3.478825    2.236588   -0.941587
     30          6           0       -2.837206    3.141581   -0.006024
     31          6           0       -3.997325    4.004853    0.495550
     32          6           0       -1.773277    4.004108   -0.692359
     33          6           0       -2.225048    2.309729    1.157006
     34          6           0       -3.093282    1.101119    1.467212
     35          8           0       -3.874265    1.098461    2.402912
     36          1           0       -4.978591   -3.979335   -0.403107
     37          1           0       -4.592046   -3.936731    1.311776
     38          1           0       -5.710668   -2.733655    0.618724
     39          1           0       -3.835140   -1.916983   -0.888214
     40          1           0       -2.710696   -3.023869   -0.111373
     41          1           0       -2.747726   -2.705042    2.484767
     42          1           0       -2.542388   -1.023985    2.959499
     43          1           0       -4.301271   -1.982023    4.300820
     44          1           0       -5.037355   -0.785541    3.219923
     45          1           0       -5.225643   -2.524027    2.898936
     46          1           0        0.925507    0.208028    1.030419
     47          1           0        3.325266    0.756143    0.767685
     48          1           0        7.189076    1.258480   -1.295072
     49          1           0        8.736817    2.094463    0.471240
     50          1           0        8.419499    1.378773    2.832383
     51          1           0        6.556213   -0.157007    3.422111
     52          1           0        4.997513   -0.946664    1.672229
     53          1           0        3.673732   -2.221145   -2.314245
     54          1           0        1.246473   -2.836799   -1.973840
     55          1           0       -1.792406    1.669979   -2.041271
     56          1           0       -4.746844    3.394945    1.006057
     57          1           0       -3.632100    4.764965    1.192674
     58          1           0       -4.475914    4.504467   -0.351092
     59          1           0       -1.359383    4.722237    0.022948
     60          1           0       -0.938101    3.412106   -1.079154
     61          1           0       -2.218587    4.562751   -1.520920
     62          1           0       -2.169700    2.924166    2.058853
     63          1           0       -1.214301    1.985575    0.891957
     64          1           0       -0.719694   -1.391952    0.640115
 ---------------------------------------------------------------------

 SCF Done:  E(RB3LYP) =  -1586.64394982     A.U. after   22 cycles

 Excitation energies and oscillator strengths:

 Excited State   1:      Triplet-A      1.5136 eV  819.11 nm  f=0.0000  <S**2>=2.000
     124 ->127         0.70141
     124 <-127         0.12118
 This state for optimization and/or second-order correction.
 Total Energy, E(TD-HF/TD-DFT) =  -1586.58832454
 Copying the excited state density for this state as the 1-particle RhoCI density.

 Excited State   2:      Triplet-A      1.8334 eV  676.24 nm  f=0.0000  <S**2>=2.000
     126 ->127         0.69643

 Excited State   3:      Triplet-A      2.0723 eV  598.30 nm  f=0.0000  <S**2>=2.000
     125 ->127         0.69280

 Excited State   4:      Singlet-A      2.1353 eV  580.64 nm  f=0.0066  <S**2>=0.000
     124 ->127        -0.10383
     125 ->127         0.46553
     126 ->127         0.51695

 Excited State   5:      Singlet-A      2.2010 eV  563.30 nm  f=0.0153  <S**2>=0.000
     125 ->127         0.52834
     126 ->127        -0.45897

 Excited State   6:      Singlet-A      2.6649 eV  465.24 nm  f=0.0850  <S**2>=0.000
     118 ->127         0.22985
     124 ->127         0.64526
     126 ->127         0.12459

 The electronic state is 1-A.
 Alpha  occ. eigenvalues --  -19.19654 -19.19175 -19.17229 -19.15610 -19.10799
 Alpha  occ. eigenvalues --  -14.49087 -14.42743 -14.34813 -10.32736 -10.32365
 Alpha  occ. eigenvalues --  -10.31323 -10.29475 -10.29404 -10.29136 -10.25979
 Alpha  occ. eigenvalues --  -10.25859 -10.23796 -10.23703 -10.23309 -10.23187
 Alpha  occ. eigenvalues --  -10.22893 -10.22842 -10.22576 -10.22110 -10.21977
 Alpha  occ. eigenvalues --  -10.21873 -10.21814 -10.21624 -10.21493 -10.21473
 Alpha  occ. eigenvalues --  -10.21416 -10.21026 -10.20044 -10.19879 -10.19750
 Alpha  occ. eigenvalues --   -1.09786  -1.09189  -1.07926  -1.05372  -1.05337
 Alpha  occ. eigenvalues --   -0.99742  -0.91379  -0.89479  -0.87874  -0.85722
 Alpha  occ. eigenvalues --   -0.84755  -0.83456  -0.79185  -0.79034  -0.78286
 Alpha  occ. eigenvalues --   -0.77710  -0.77010  -0.76701  -0.75902  -0.73253
 Alpha  occ. eigenvalues --   -0.71943  -0.69712  -0.67057  -0.66503  -0.64414
 Alpha  occ. eigenvalues --   -0.63544  -0.62991  -0.62500  -0.60865  -0.59464
 Alpha  occ. eigenvalues --   -0.57874  -0.57633  -0.57357  -0.55383  -0.55141
 Alpha  occ. eigenvalues --   -0.53794  -0.53202  -0.51633  -0.50933  -0.49973
 Alpha  occ. eigenvalues --   -0.49493  -0.48999  -0.48663  -0.47714  -0.47641
 Alpha  occ. eigenvalues --   -0.47108  -0.46973  -0.46428  -0.45945  -0.45703
 Alpha  occ. eigenvalues --   -0.45226  -0.45018  -0.44915  -0.44336  -0.44044
 Alpha  occ. eigenvalues --   -0.43876  -0.42691  -0.42642  -0.42412  -0.41559
 Alpha  occ. eigenvalues --   -0.41356  -0.40777  -0.40704  -0.40557  -0.40026
 Alpha  occ. eigenvalues --   -0.39244  -0.38909  -0.38655  -0.38409  -0.38021
 Alpha  occ. eigenvalues --   -0.37817  -0.37502  -0.36916  -0.36805  -0.36402
 Alpha  occ. eigenvalues --   -0.36301  -0.34857  -0.34488  -0.33990  -0.33240
 Alpha  occ. eigenvalues --   -0.31964  -0.30465  -0.29642  -0.28506  -0.28320
 Alpha  occ. eigenvalues --   -0.27835  -0.27621  -0.26417  -0.24801  -0.23631
 Alpha  occ. eigenvalues --   -0.23117
 Alpha virt. eigenvalues --   -0.12820  -0.08620  -0.04772  -0.04188  -0.03493
 Alpha virt. eigenvalues --   -0.02961  -0.02803  -0.01082  -0.00615  -0.00079
 Alpha virt. eigenvalues --    0.00115   0.00531   0.00965   0.01384   0.01717

 Mulliken charges:
               1
     1  C   -0.736621
     2  C    0.267104
     3  N    0.074177
     4  C    0.060441
     5  C   -0.578882
     6  C   -0.219357
     7  C    0.334261
     8  C   -0.896143
     9  O   -0.218728
    10  N   -0.296695
    11  O   -0.123038
    12  C   -0.002398
    13  C   -0.193353
    14  C   -0.694790
    15  C    0.968626
    16  C   -0.471977
    17  O   -0.382032
    18  C    0.531603
    19  C    0.463151
    20  C   -0.230630
    21  C   -0.076470
    22  C   -0.326445
    23  C   -0.691510
    24  C    0.136680
    25  C    0.151484
    26  C    0.577018
    27  C   -0.087540
    28  N   -0.412355
    29  O   -0.162769
    30  C   -0.092397
    31  C   -0.415511
    32  C   -0.304349
    33  C   -0.019513
    34  C   -0.324109
    35  O   -0.353237
    36  H    0.165300
    37  H    0.150729
    38  H    0.159884
    39  H    0.172579
    40  H    0.240234
    41  H    0.168468
    42  H    0.143738
    43  H    0.146239
    44  H    0.196038
    45  H    0.148551
    46  H    0.105816
    47  H    0.139977
    48  H    0.153093
    49  H    0.133900
    50  H    0.131174
    51  H    0.130407
    52  H    0.136903
    53  H    0.159972
    54  H    0.177488
    55  H    0.169611
    56  H    0.177659
    57  H    0.150980
    58  H    0.167918
    59  H    0.160050
    60  H    0.147956
    61  H    0.169667
    62  H    0.177941
    63  H    0.162519
    64  H    0.301510
 Sum of Mulliken charges =  -0.00000

 Dipole moment (field-independent basis, Debye):
    X=              1.6974    Y=              4.1964    Z=              9.3285  Tot=             10.3688
 Quadrupole moment (field-independent basis, Debye-Ang):
   XX=           -215.2910   YY=           -200.4341   ZZ=           -227.6346
   XY=             13.2644   XZ=             -1.4540   YZ=             -7.2639

 Normal termination of Gaussian 16 at Thu Jul 31 20:42:02 2025.
