 Gaussian 16, Revision C.02,
 Gaussian 16:  ES64L-G16RevC.02  7-Dec-2021

 ----------------------------------------------------------
 # td=(50-50,nstates=3) b3lyp/6-31+g(d,p) geom=connectivity
 ----------------------------------------------------------

 -------------------
 Title Card Required
 -------------------
 Symbolic Z-matrix:
 Charge =  0 Multiplicity = 1

                         Standard orientation:
 ---------------------------------------------------------------------
 Center     Atomic      Atomic             Coordinates (Angstroms)
 Number     Number       Type             X           Y           Z
 ---------------------------------------------------------------------
      1          6           0       -2.696317   -1.586305    0.000020
      2          8           0       -2.434827   -0.185318   -0.000021
      3          6           0       -1.141070    0.240097   -0.000010
      4          6           0       -0.956616    1.633518   -0.000001
      5          6           0        0.326804    2.169307    0.000007
      6          6           0        1.449995    1.336957    0.000007
      7          6           0        1.261650   -0.051395   -0.000001
      8          6           0        2.399235   -0.928607   -0.000001
      9          7           0        3.318244   -1.642916   -0.000001
     10          6           0       -0.031573   -0.610091   -0.000010
     11          1           0       -3.782111   -1.683516    0.000044
     12          1           0       -2.286967   -2.067400   -0.896584
     13          1           0       -2.286930   -2.067354    0.896631
     14          1           0       -1.834518    2.271090   -0.000001
     15          1           0        0.456200    3.247140    0.000014
     16          1           0        2.452640    1.748994    0.000015
     17          1           0       -0.140049   -1.686891   -0.000018
 ---------------------------------------------------------------------

 SCF Done:  E(RB3LYP) =  -439.042257189     A.U. after   15 cycles

 Excitation energies and oscillator strengths:

 Excited State   1:      Triplet-A      3.2548 eV  380.93 nm  f=0.0000  <S**2>=2.000
      34 -> 36         0.32350
      35 -> 36         0.57543
      35 -> 37        -0.20997
 This state for optimization and/or second-order correction.
 Total Energy, E(TD-HF/TD-DFT) =  -438.922646201
 Copying the excited state density for this state as the 1-particle RhoCI density.

 Excited State   2:      Triplet-A      3.8470 eV  322.29 nm  f=0.0000  <S**2>=2.000
      34 -> 36         0.48538
      34 -> 37         0.17357
      35 -> 36        -0.40030
      35 -> 37        -0.26007

 Excited State   3:      Triplet-A      4.2908 eV  288.96 nm  f=0.0000  <S**2>=2.000
      34 -> 36         0.36920
      35 -> 37         0.58991

 Excited State   4:      Singlet-A      4.5664 eV  271.51 nm  f=0.0711  <S**2>=0.000
      34 -> 36        -0.15625
      34 -> 37         0.20006
      35 -> 36         0.64635
      35 -> 37         0.12521

 Excited State   5:      Singlet-A      5.3534 eV  231.60 nm  f=0.0908  <S**2>=0.000
      34 -> 36         0.51569
      35 -> 36         0.21329
      35 -> 37        -0.41823

 Excited State   6:      Singlet-A      5.8780 eV  210.93 nm  f=0.0051  <S**2>=0.000
      35 -> 38         0.69812

 The electronic state is 1-A.
 Alpha  occ. eigenvalues --  -19.20907 -14.34841 -10.28109 -10.26181 -10.25247
 Alpha  occ. eigenvalues --  -10.24008 -10.22616 -10.22302 -10.22198 -10.21866
 Alpha  occ. eigenvalues --   -1.09264  -0.91782  -0.88421  -0.79833  -0.78021
 Alpha  occ. eigenvalues --   -0.72623  -0.66621  -0.62606  -0.57799  -0.52138
 Alpha  occ. eigenvalues --   -0.51592  -0.50067  -0.49137  -0.46449  -0.44304
 Alpha  occ. eigenvalues --   -0.41627  -0.40474  -0.39347  -0.37558  -0.37328
 Alpha  occ. eigenvalues --   -0.35683  -0.34121  -0.33540  -0.27918  -0.25118
 Alpha virt. eigenvalues --   -0.06370  -0.02675  -0.00674   0.00599   0.01544
 Alpha virt. eigenvalues --    0.02133   0.02485   0.03314   0.03429   0.04587
 Alpha virt. eigenvalues --    0.05654   0.06063   0.06382   0.06649   0.07933

 Mulliken charges:
               1
     1  C   -0.125546
     2  O   -0.348747
     3  C   -0.311154
     4  C    0.076125
     5  C   -0.040969
     6  C   -0.207845
     7  C    0.101138
     8  C   -0.349874
     9  N   -0.522975
    10  C    0.709004
    11  H    0.156426
    12  H    0.149446
    13  H    0.149446
    14  H    0.141500
    15  H    0.137842
    16  H    0.146113
    17  H    0.140070
 Sum of Mulliken charges =  -0.00000

 Dipole moment (field-independent basis, Debye):
    X=             -3.9634    Y=              1.3899    Z=              0.0001  Tot=              4.2001
 Quadrupole moment (field-independent basis, Debye-Ang):
   XX=            -69.1273   YY=            -53.7317   ZZ=            -60.9685
   XY=             13.9153   XZ=             -0.0001   YZ=              0.0000

 Normal termination of Gaussian 16 at Thu Jul 31 20:25:05 2025.
