 Gaussian 16, Revision C.02,
 Gaussian 16:  ES64L-G16RevC.02  7-Dec-2021

 ----------------------------------------------------------
 # td=(50-50,nstates=3) b3lyp/6-31+g(d,p) geom=connectivity
 ----------------------------------------------------------

 -------------------
 Title Card Required
 -------------------
 Symbolic Z-matrix:
 Charge =  0 Multiplicity = 1

                         Standard orientation:
 ---------------------------------------------------------------------
 Center     Atomic      Atomic             Coordinates (Angstroms)
 Number     Number       Type             X           Y           Z
 ---------------------------------------------------------------------
      1          6           0       -2.501274    3.864474    0.012638
      2          6           0       -2.607861    2.519268   -0.692977
      3          6           0       -3.977280    2.323508   -1.331809
      4          8           0       -1.549496    2.374451   -1.698172
      5          6           0       -1.103210    1.118276   -1.132691
      6          6           0        0.404529    1.080808   -0.926335
      7          6           0        0.874841   -0.262808   -0.328378
      8          6           0        2.368974   -0.312336   -0.106775
      9          6           0        3.247499   -0.782408   -1.086049
     10          9           0        2.756401   -1.223323   -2.263074
     11          6           0        4.627500   -0.822511   -0.901587
     12          9           0        5.433026   -1.285977   -1.868471
     13          6           0        5.170867   -0.376238    0.300978
     14          9           0        6.495782   -0.406610    0.493904
     15          6           0        4.328154    0.102315    1.301754
     16          9           0        4.844246    0.532504    2.462788
     17          6           0        2.953109    0.127827    1.083415
     18          9           0        2.166059    0.597918    2.075178
     19          6           0       -2.015212    1.296101    0.104151
     20          6           0       -2.899366    0.186591    0.616039
     21          6           0       -3.244751    0.159733    1.977634
     22          6           0       -4.078810   -0.834516    2.490318
     23          6           0       -4.585664   -1.835142    1.658302
     24          6           0       -4.236489   -1.812571    0.308844
     25         17           0       -4.853297   -3.066262   -0.761987
     26          6           0       -3.407904   -0.821892   -0.217656
     27          1           0       -3.230778    3.929693    0.828390
     28          1           0       -1.499020    4.010709    0.425707
     29          1           0       -2.702525    4.678723   -0.691759
     30          1           0       -4.164443    3.137978   -2.039217
     31          1           0       -4.038260    1.380874   -1.880771
     32          1           0       -4.769327    2.331145   -0.575236
     33          1           0       -1.405146    0.283121   -1.781372
     34          1           0        0.890233    1.248700   -1.895155
     35          1           0        0.697941    1.909388   -0.271236
     36          1           0        0.372666   -0.437702    0.628091
     37          1           0        0.590746   -1.081598   -0.996489
     38          1           0       -1.427848    1.678589    0.946026
     39          1           0       -2.850197    0.923911    2.641974
     40          1           0       -4.332690   -0.837686    3.546209
     41          1           0       -5.230114   -2.616311    2.045564
     42          1           0       -3.164740   -0.850191   -1.273390
 ---------------------------------------------------------------------

 SCF Done:  E(RB3LYP) =  -1768.30320710     A.U. after   16 cycles

 Excitation energies and oscillator strengths:

 Excited State   1:      Triplet-A      3.6088 eV  343.56 nm  f=0.0000  <S**2>=2.000
      98 ->103         0.38484
      98 ->104        -0.17492
      99 ->104         0.13911
     100 ->103         0.25386
     100 ->104         0.44508
     100 ->105         0.10851
 This state for optimization and/or second-order correction.
 Total Energy, E(TD-HF/TD-DFT) =  -1768.17058432
 Copying the excited state density for this state as the 1-particle RhoCI density.

 Excited State   2:      Triplet-A      3.7089 eV  334.29 nm  f=0.0000  <S**2>=2.000
      96 ->101         0.45492
      96 ->102         0.12881
      97 ->105         0.47112
      99 ->101         0.18156

 Excited State   3:      Triplet-A      4.3972 eV  281.96 nm  f=0.0000  <S**2>=2.000
      98 ->104         0.24933
      99 ->104        -0.12038
     100 ->103         0.58023
     100 ->104        -0.24187

 Excited State   4:      Singlet-A      5.0395 eV  246.02 nm  f=0.0085  <S**2>=0.000
      98 ->103        -0.17421
      98 ->104        -0.33816
      99 ->103         0.14467
     100 ->103         0.50239
     100 ->104        -0.25040

 Excited State   5:      Singlet-A      5.2499 eV  236.17 nm  f=0.0029  <S**2>=0.000
      96 ->105         0.36158
      97 ->101        -0.53979
      99 ->105         0.23496

 Excited State   6:      Singlet-A      5.2964 eV  234.09 nm  f=0.0001  <S**2>=0.000
      97 ->102         0.68900

 The electronic state is 1-A.
 Alpha  occ. eigenvalues -- -101.56294 -24.76614 -24.76346 -24.76288 -24.76139
 Alpha  occ. eigenvalues --  -24.76014 -19.15702 -10.32831 -10.32410 -10.32386
 Alpha  occ. eigenvalues --  -10.32217 -10.32194 -10.27017 -10.26276 -10.25671
 Alpha  occ. eigenvalues --  -10.25306 -10.22802 -10.22723 -10.21985 -10.21927
 Alpha  occ. eigenvalues --  -10.21919 -10.21728 -10.21452 -10.20913 -10.19052
 Alpha  occ. eigenvalues --  -10.18796  -9.47799  -7.24204  -7.23235  -7.23205
 Alpha  occ. eigenvalues --   -1.28282  -1.27554  -1.26977  -1.26194  -1.25948
 Alpha  occ. eigenvalues --   -1.05307  -0.92283  -0.90622  -0.85619  -0.84069
 Alpha  occ. eigenvalues --   -0.80603  -0.79859  -0.79721  -0.77330  -0.75398
 Alpha  occ. eigenvalues --   -0.73067  -0.70533  -0.69960  -0.68178  -0.65787
 Alpha  occ. eigenvalues --   -0.63437  -0.61373  -0.61286  -0.61053  -0.60327
 Alpha  occ. eigenvalues --   -0.58933  -0.56482  -0.55759  -0.55165  -0.54189
 Alpha  occ. eigenvalues --   -0.54109  -0.53336  -0.51376  -0.50623  -0.50079
 Alpha  occ. eigenvalues --   -0.49679  -0.49239  -0.48581  -0.48172  -0.47404
 Alpha  occ. eigenvalues --   -0.46702  -0.46310  -0.46159  -0.45985  -0.45349
 Alpha  occ. eigenvalues --   -0.44532  -0.43476  -0.43083  -0.42388  -0.41734
 Alpha  occ. eigenvalues --   -0.41424  -0.40820  -0.40585  -0.39746  -0.39157
 Alpha  occ. eigenvalues --   -0.38898  -0.38085  -0.37454  -0.37038  -0.36747
 Alpha  occ. eigenvalues --   -0.36262  -0.35108  -0.32584  -0.32462  -0.31806
 Alpha  occ. eigenvalues --   -0.28301  -0.27717  -0.27310  -0.26375  -0.25928
 Alpha virt. eigenvalues --   -0.04561  -0.04323  -0.03940  -0.03667  -0.03615
 Alpha virt. eigenvalues --   -0.00852   0.00028   0.00254   0.00878   0.01294
 Alpha virt. eigenvalues --    0.01628   0.02065   0.02700   0.03381   0.03520

 Mulliken charges:
               1
     1  C   -0.444037
     2  C    0.237514
     3  C   -0.409611
     4  O   -0.293594
     5  C    0.712624
     6  C   -0.838636
     7  C    0.327120
     8  C    0.311101
     9  C   -0.168744
    10  F   -0.338672
    11  C    0.269273
    12  F   -0.340673
    13  C    0.516952
    14  F   -0.332687
    15  C    0.264949
    16  F   -0.342535
    17  C   -0.031617
    18  F   -0.341198
    19  C   -0.395779
    20  C   -0.327481
    21  C   -0.286795
    22  C   -0.088554
    23  C   -0.280230
    24  C   -0.260692
    25  Cl   0.221683
    26  C    0.365669
    27  H    0.149879
    28  H    0.149640
    29  H    0.157529
    30  H    0.153433
    31  H    0.151421
    32  H    0.152683
    33  H    0.100384
    34  H    0.162828
    35  H    0.149006
    36  H    0.163166
    37  H    0.158811
    38  H    0.123071
    39  H    0.119734
    40  H    0.136321
    41  H    0.145894
    42  H    0.120851
 Sum of Mulliken charges =  -0.00000

 Dipole moment (field-independent basis, Debye):
    X=             -2.4651    Y=              0.8582    Z=              2.1091  Tot=              3.3558
 Quadrupole moment (field-independent basis, Debye-Ang):
   XX=           -172.3340   YY=           -159.5279   ZZ=           -161.5525
   XY=             -3.8838   XZ=             -8.3899   YZ=             -0.6878

 Normal termination of Gaussian 16 at Fri Sep 19 15:40:02 2025.
