 Gaussian 16, Revision C.02,
 Gaussian 16:  ES64L-G16RevC.02  7-Dec-2021

 ----------------------------------------------------------
 # td=(50-50,nstates=3) b3lyp/6-31+g(d,p) geom=connectivity
 ----------------------------------------------------------

 -------------------
 Title Card Required
 -------------------
 Symbolic Z-matrix:
 Charge =  0 Multiplicity = 1

                         Standard orientation:
 ---------------------------------------------------------------------
 Center     Atomic      Atomic             Coordinates (Angstroms)
 Number     Number       Type             X           Y           Z
 ---------------------------------------------------------------------
      1          6           0       -0.925392    4.035914    1.292289
      2          6           0       -2.346580    3.711085    0.811371
      3          6           0       -3.177301    3.033734    1.910256
      4          6           0       -2.360984    2.899969   -0.522589
      5          6           0       -1.764321    1.541875   -0.455858
      6          8           0       -0.393984    1.469729   -0.537414
      7          6           0       -0.039423    0.146275   -0.412886
      8          6           0        1.292238   -0.115218   -0.196302
      9          8           0        2.190554    0.869004   -0.546848
     10          6           0        3.441828    0.455060   -0.190447
     11          6           0        4.532013    1.249276   -0.475206
     12          6           0        5.837472    0.795961   -0.128820
     13          7           0        6.895432    0.408982    0.167943
     14          6           0        4.381556    2.517144   -1.105801
     15          7           0        4.257577    3.555957   -1.617825
     16          6           0        3.349884   -0.806936    0.470053
     17          6           0        2.028271   -1.154597    0.478295
     18         35           0        1.310006   -2.567581    1.462946
     19          6           0       -1.233048   -0.673193   -0.474483
     20          6           0       -1.282533   -2.024576   -0.812509
     21          6           0       -2.462801   -2.821460   -0.737041
     22          7           0       -3.365665   -3.555705   -0.671360
     23          6           0       -0.159007   -2.685881   -1.389303
     24          7           0        0.734897   -3.225960   -1.907813
     25          6           0       -2.302840    0.291790   -0.360087
     26         35           0       -4.143047   -0.058218   -0.306314
     27          1           0       -0.964084    4.713033    2.151995
     28          1           0       -0.388340    3.134266    1.606155
     29          1           0       -0.332673    4.520581    0.509332
     30          1           0       -2.836952    4.660172    0.556037
     31          1           0       -4.209377    2.859890    1.588802
     32          1           0       -3.205640    3.662516    2.806208
     33          1           0       -2.750922    2.065957    2.199171
     34          1           0       -3.395960    2.792863   -0.861198
     35          1           0       -1.815502    3.464508   -1.287854
     36          1           0        4.173427   -1.340938    0.921112
 ---------------------------------------------------------------------

 SCF Done:  E(RB3LYP) =  -6204.74676758     A.U. after   19 cycles

 Excitation energies and oscillator strengths:

 Excited State   1:      Triplet-A      0.4610 eV 2689.63 nm  f=0.0000  <S**2>=2.000
     115 ->117         0.12849
     116 ->117         0.78904
     116 <-117         0.38261
 This state for optimization and/or second-order correction.
 Total Energy, E(TD-HF/TD-DFT) =  -6204.72982719
 Copying the excited state density for this state as the 1-particle RhoCI density.

 Excited State   2:      Triplet-A      1.6716 eV  741.71 nm  f=0.0000  <S**2>=2.000
     115 ->117         0.67015
     116 ->118         0.16163

 Excited State   3:      Singlet-A      1.9996 eV  620.05 nm  f=0.2267  <S**2>=0.000
     115 ->117        -0.29258
     116 ->117         0.65034
     116 <-117        -0.12801

 Excited State   4:      Singlet-A      2.6140 eV  474.30 nm  f=0.5358  <S**2>=0.000
     115 ->117         0.62966
     116 ->117         0.31242
     116 ->118        -0.10541
     116 <-117        -0.10195

 Excited State   5:      Triplet-A      2.7347 eV  453.37 nm  f=0.0000  <S**2>=2.000
     113 ->117        -0.12755
     114 ->117         0.62344
     115 ->117         0.12140
     115 ->118        -0.12013
     116 ->118        -0.18080

 Excited State   6:      Singlet-A      3.2647 eV  379.77 nm  f=0.0178  <S**2>=0.000
     114 ->117         0.66868
     116 ->118         0.19844

 The electronic state is 1-A.
 Alpha  occ. eigenvalues -- -482.99575-482.97795 -61.95363 -61.93591 -56.46841
 Alpha  occ. eigenvalues --  -56.46430 -56.46406 -56.45115 -56.44703 -56.44662
 Alpha  occ. eigenvalues --  -19.28939 -19.27846 -14.37901 -14.37650 -14.37640
 Alpha  occ. eigenvalues --  -14.37257 -10.34713 -10.34533 -10.33723 -10.32814
 Alpha  occ. eigenvalues --  -10.32390 -10.30700 -10.30633 -10.30321 -10.29466
 Alpha  occ. eigenvalues --  -10.27717 -10.27313 -10.27085 -10.27025 -10.26667
 Alpha  occ. eigenvalues --  -10.24089 -10.23335 -10.20304 -10.20170  -8.65509
 Alpha  occ. eigenvalues --   -8.63784  -6.60740  -6.59346  -6.59285  -6.59020
 Alpha  occ. eigenvalues --   -6.57618  -6.57597  -2.72269  -2.71874  -2.71827
 Alpha  occ. eigenvalues --   -2.70714  -2.70713  -2.70550  -2.70144  -2.70130
 Alpha  occ. eigenvalues --   -2.69010  -2.69010  -1.19543  -1.17540  -0.95399
 Alpha  occ. eigenvalues --   -0.95288  -0.93748  -0.93483  -0.91971  -0.91040
 Alpha  occ. eigenvalues --   -0.90010  -0.87379  -0.84357  -0.83110  -0.82792
 Alpha  occ. eigenvalues --   -0.80044  -0.77855  -0.72932  -0.71235  -0.68689
 Alpha  occ. eigenvalues --   -0.67956  -0.65729  -0.64062  -0.62693  -0.59956
 Alpha  occ. eigenvalues --   -0.59436  -0.59130  -0.56777  -0.54768  -0.54083
 Alpha  occ. eigenvalues --   -0.52373  -0.50797  -0.49349  -0.47512  -0.47135
 Alpha  occ. eigenvalues --   -0.47010  -0.46467  -0.45768  -0.44821  -0.44233
 Alpha  occ. eigenvalues --   -0.43731  -0.43476  -0.41423  -0.40960  -0.40219
 Alpha  occ. eigenvalues --   -0.40199  -0.40065  -0.39690  -0.39287  -0.38748
 Alpha  occ. eigenvalues --   -0.37898  -0.37811  -0.37454  -0.37276  -0.37174
 Alpha  occ. eigenvalues --   -0.36567  -0.36537  -0.36341  -0.36012  -0.35072
 Alpha  occ. eigenvalues --   -0.34271  -0.32995  -0.32511  -0.31879  -0.28086
 Alpha  occ. eigenvalues --   -0.25152
 Alpha virt. eigenvalues --   -0.17602  -0.09952  -0.05674  -0.04400  -0.04255
 Alpha virt. eigenvalues --   -0.03493  -0.03189  -0.02861  -0.02623  -0.01134
 Alpha virt. eigenvalues --   -0.00159   0.00045   0.00327   0.00564   0.00792

 Mulliken charges:
               1
     1  C   -0.515121
     2  C    0.132115
     3  C   -0.533307
     4  C   -0.790205
     5  C    0.050085
     6  O   -0.169073
     7  C   -0.631191
     8  C   -0.537376
     9  O   -0.234070
    10  C    0.824383
    11  C    0.655789
    12  C   -0.197798
    13  N   -0.487011
    14  C   -0.376438
    15  N   -0.469024
    16  C    0.136910
    17  C    0.314989
    18  Br   0.173889
    19  C    0.271506
    20  C    1.021747
    21  C   -0.119657
    22  N   -0.432355
    23  C   -0.404899
    24  N   -0.415877
    25  C    0.945779
    26  Br   0.190818
    27  H    0.151737
    28  H    0.149878
    29  H    0.152301
    30  H    0.144307
    31  H    0.152512
    32  H    0.150933
    33  H    0.153991
    34  H    0.167650
    35  H    0.172586
    36  H    0.199494
 Sum of Mulliken charges =  -0.00000

 Dipole moment (field-independent basis, Debye):
    X=             -4.4218    Y=              3.3428    Z=              3.6623  Tot=              6.6437
 Quadrupole moment (field-independent basis, Debye-Ang):
   XX=           -214.2352   YY=           -194.8862   ZZ=           -178.8954
   XY=            -30.4493   XZ=              6.6417   YZ=             -3.2401

 Normal termination of Gaussian 16 at Thu Jul 31 20:51:17 2025.
