 Gaussian 16, Revision C.02,
 Gaussian 16:  ES64L-G16RevC.02  7-Dec-2021

 ----------------------------------------------------------
 # td=(50-50,nstates=3) b3lyp/6-31+g(d,p) geom=connectivity
 ----------------------------------------------------------

 -------------------
 Title Card Required
 -------------------
 Symbolic Z-matrix:
 Charge =  0 Multiplicity = 1

                         Standard orientation:
 ---------------------------------------------------------------------
 Center     Atomic      Atomic             Coordinates (Angstroms)
 Number     Number       Type             X           Y           Z
 ---------------------------------------------------------------------
      1          6           0        4.378797    0.871417    1.526611
      2          6           0        4.118372    0.139882    0.428412
      3          6           0        5.202567   -0.314385   -0.406846
      4          7           0        6.072688   -0.666121   -1.093897
      5          6           0        2.759157   -0.264250    0.014256
      6          6           0        1.633517    0.413652   -0.272007
      7          6           0        1.336970    1.898979   -0.351559
      8          6           0        0.960317    2.516344    1.013232
      9          6           0        2.441162    2.715932   -1.048148
     10          6           0        0.588841   -0.618339   -0.674344
     11          6           0       -0.707005   -0.601234    0.121764
     12          6           0       -0.719373   -0.956167    1.478070
     13          6           0       -1.908496   -0.917931    2.203782
     14          6           0       -3.102227   -0.521708    1.593701
     15          6           0       -3.080336   -0.175074    0.245118
     16         35           0       -4.697522    0.356639   -0.612399
     17          6           0       -1.899487   -0.213114   -0.497310
     18          6           0        1.352674   -1.942689   -0.557259
     19          8           0        0.978383   -3.063937   -0.761725
     20          8           0        2.637657   -1.656573   -0.147403
     21          1           0        3.577309    1.187568    2.183731
     22          1           0        5.393215    1.156760    1.783075
     23          1           0        0.439952    1.976481   -0.980966
     24          1           0        0.603074    3.542422    0.873790
     25          1           0        0.170273    1.946812    1.510011
     26          1           0        1.827037    2.554098    1.681050
     27          1           0        2.104309    3.748224   -1.189876
     28          1           0        2.684823    2.300867   -2.031149
     29          1           0        3.360717    2.746401   -0.457333
     30          1           0        0.339472   -0.489578   -1.736954
     31          1           0        0.198495   -1.270844    1.966676
     32          1           0       -1.913024   -1.201503    3.251923
     33          1           0       -4.029042   -0.490823    2.155225
     34          1           0       -1.913194    0.049769   -1.549766
 ---------------------------------------------------------------------

 SCF Done:  E(RB3LYP) =  -3395.06581260     A.U. after   17 cycles

 Excitation energies and oscillator strengths:

 Excited State   1:      Triplet-A      2.8941 eV  428.40 nm  f=0.0000  <S**2>=2.000
      79 -> 85         0.30668
      81 -> 85         0.14859
      83 -> 85        -0.38512
      84 -> 85         0.42384
 This state for optimization and/or second-order correction.
 Total Energy, E(TD-HF/TD-DFT) =  -3394.95945584
 Copying the excited state density for this state as the 1-particle RhoCI density.

 Excited State   2:      Triplet-A      3.5568 eV  348.58 nm  f=0.0000  <S**2>=2.000
      79 -> 85         0.45014
      81 -> 85         0.25319
      83 -> 85         0.13827
      83 -> 87        -0.21848
      84 -> 85        -0.15499
      84 -> 87         0.21237

 Excited State   3:      Triplet-A      3.5810 eV  346.23 nm  f=0.0000  <S**2>=2.000
      78 -> 86        -0.12063
      82 -> 86        -0.18633
      82 -> 88         0.30893
      83 -> 86         0.25570
      83 -> 87         0.10442
      83 -> 88         0.17998
      84 -> 86         0.39583
      84 -> 87         0.16120
      84 -> 88         0.13579

 Excited State   4:      Singlet-A      4.0143 eV  308.85 nm  f=0.0786  <S**2>=0.000
      83 -> 85        -0.32137
      84 -> 85         0.61518

 Excited State   5:      Singlet-A      4.3088 eV  287.75 nm  f=0.0024  <S**2>=0.000
      83 -> 85         0.61262
      84 -> 85         0.32810

 Excited State   6:      Singlet-A      4.6789 eV  264.99 nm  f=0.0003  <S**2>=0.000
      82 -> 85         0.67870
      82 -> 87        -0.10491

 The electronic state is 1-A.
 Alpha  occ. eigenvalues -- -482.94565 -61.90456 -56.42013 -56.41637 -56.41596
 Alpha  occ. eigenvalues --  -19.23252 -19.17138 -14.36150 -10.34543 -10.29065
 Alpha  occ. eigenvalues --  -10.27873 -10.27108 -10.25243 -10.24924 -10.24904
 Alpha  occ. eigenvalues --  -10.24114 -10.23633 -10.23216 -10.22856 -10.22676
 Alpha  occ. eigenvalues --  -10.22616 -10.22313 -10.20309 -10.20008  -8.60796
 Alpha  occ. eigenvalues --   -6.55975  -6.54707  -6.54679  -2.67522  -2.67160
 Alpha  occ. eigenvalues --   -2.67139  -2.66127  -2.66127  -1.14103  -1.06122
 Alpha  occ. eigenvalues --   -0.92857  -0.90456  -0.87242  -0.85390  -0.82653
 Alpha  occ. eigenvalues --   -0.80810  -0.77768  -0.75132  -0.74034  -0.70943
 Alpha  occ. eigenvalues --   -0.68551  -0.65045  -0.64005  -0.63701  -0.60252
 Alpha  occ. eigenvalues --   -0.57591  -0.54946  -0.54000  -0.51917  -0.50746
 Alpha  occ. eigenvalues --   -0.49151  -0.48636  -0.47515  -0.47171  -0.46391
 Alpha  occ. eigenvalues --   -0.45206  -0.44441  -0.44002  -0.43529  -0.42273
 Alpha  occ. eigenvalues --   -0.41434  -0.41236  -0.40610  -0.39905  -0.38557
 Alpha  occ. eigenvalues --   -0.38197  -0.37820  -0.37748  -0.37067  -0.36673
 Alpha  occ. eigenvalues --   -0.36002  -0.35198  -0.33222  -0.31103  -0.30599
 Alpha  occ. eigenvalues --   -0.30223  -0.28201  -0.26693  -0.26006
 Alpha virt. eigenvalues --   -0.08919  -0.04768  -0.04662  -0.04471  -0.02298
 Alpha virt. eigenvalues --   -0.01557  -0.00786  -0.00464   0.00086   0.00704
 Alpha virt. eigenvalues --    0.01362   0.01569   0.02566   0.02635   0.03038

 Mulliken charges:
               1
     1  C   -0.504365
     2  C   -0.088327
     3  C    0.089425
     4  N   -0.482378
     5  C    0.872470
     6  C   -0.601694
     7  C    0.357600
     8  C   -0.589153
     9  C   -0.575594
    10  C    0.158487
    11  C    0.287976
    12  C   -0.100176
    13  C    0.040080
    14  C   -0.295033
    15  C   -0.246086
    16  Br   0.045500
    17  C    0.063897
    18  C    0.040225
    19  O   -0.385229
    20  O   -0.179139
    21  H    0.154342
    22  H    0.171071
    23  H    0.135520
    24  H    0.152306
    25  H    0.163758
    26  H    0.132343
    27  H    0.149347
    28  H    0.154546
    29  H    0.158309
    30  H    0.174504
    31  H    0.125077
    32  H    0.139331
    33  H    0.148341
    34  H    0.132719
 Sum of Mulliken charges =  -0.00000

 Dipole moment (field-independent basis, Debye):
    X=             -2.1414    Y=              5.3671    Z=              3.5250  Tot=              6.7688
 Quadrupole moment (field-independent basis, Debye-Ang):
   XX=           -157.3800   YY=           -143.1769   ZZ=           -122.2067
   XY=             15.5450   XZ=             11.8711   YZ=             -4.8047

 Normal termination of Gaussian 16 at Thu Jul 31 20:42:02 2025.
