 Gaussian 16, Revision C.02,
 Gaussian 16:  ES64L-G16RevC.02  7-Dec-2021

 ----------------------------------------------------------
 # td=(50-50,nstates=3) b3lyp/6-31+g(d,p) geom=connectivity
 ----------------------------------------------------------

 -------------------
 Title Card Required
 -------------------
 Symbolic Z-matrix:
 Charge =  0 Multiplicity = 1

                         Standard orientation:
 ---------------------------------------------------------------------
 Center     Atomic      Atomic             Coordinates (Angstroms)
 Number     Number       Type             X           Y           Z
 ---------------------------------------------------------------------
      1          6           0        0.473029    2.795533   -0.490857
      2          7           0        0.510447    1.350846   -0.272333
      3          6           0       -0.120956    0.854317    0.953026
      4          6           0       -1.596970    1.247687    1.076409
      5          6           0       -2.464291    0.790239   -0.086798
      6         35           0       -2.650816   -1.182821   -0.131220
      7          7           0        1.706163    0.832613   -0.674825
      8          6           0        2.183556   -0.267640   -0.221837
      9          6           0        3.468187   -0.784565   -0.832676
     10          6           0        4.504770   -1.035925    0.178279
     11          7           0        5.310924   -1.240173    0.989105
     12          1           0        1.015925    3.007783   -1.411906
     13          1           0       -0.557660    3.140563   -0.601885
     14          1           0        0.945854    3.352371    0.334463
     15          1           0       -0.075846   -0.236582    0.939910
     16          1           0        0.434472    1.198426    1.843278
     17          1           0       -1.982724    0.833758    2.013850
     18          1           0       -1.701465    2.337853    1.157118
     19          1           0       -3.484017    1.163710    0.000904
     20          1           0       -2.049178    1.059423   -1.057395
     21          1           0        1.726585   -0.879776    0.556403
     22          1           0        3.291686   -1.726355   -1.370898
     23          1           0        3.838248   -0.053300   -1.558033
 ---------------------------------------------------------------------

 SCF Done:  E(RB3LYP) =  -3009.92077560     A.U. after   14 cycles

 Excitation energies and oscillator strengths:

 Excited State   1:      Triplet-A      3.4209 eV  362.43 nm  f=0.0000  <S**2>=2.000
      55 -> 56        -0.27119
      55 -> 57         0.59783
      55 -> 58        -0.16616
 This state for optimization and/or second-order correction.
 Total Energy, E(TD-HF/TD-DFT) =  -3009.79505956
 Copying the excited state density for this state as the 1-particle RhoCI density.

 Excited State   2:      Triplet-A      4.8825 eV  253.93 nm  f=0.0000  <S**2>=2.000
      52 -> 56         0.26956
      52 -> 57        -0.60288
      52 -> 58         0.16698

 Excited State   3:      Triplet-A      4.9406 eV  250.95 nm  f=0.0000  <S**2>=2.000
      55 -> 56         0.64138
      55 -> 57         0.27434

 Excited State   4:      Singlet-A      4.9501 eV  250.47 nm  f=0.0066  <S**2>=0.000
      55 -> 56         0.68620
      55 -> 57         0.16215

 Excited State   5:      Singlet-A      5.2811 eV  234.77 nm  f=0.1601  <S**2>=0.000
      55 -> 56        -0.12904
      55 -> 57         0.60346
      55 -> 58         0.32658

 Excited State   6:      Singlet-A      5.5770 eV  222.31 nm  f=0.1467  <S**2>=0.000
      55 -> 57        -0.29192
      55 -> 58         0.58380
      55 -> 59         0.20848

 The electronic state is 1-A.
 Alpha  occ. eigenvalues -- -482.92319 -61.88356 -56.40032 -56.39680 -56.39663
 Alpha  occ. eigenvalues --  -14.39903 -14.38830 -14.34397 -10.25988 -10.24742
 Alpha  occ. eigenvalues --  -10.24299 -10.24189 -10.23813 -10.22975 -10.22484
 Alpha  occ. eigenvalues --   -8.58955  -6.54156  -6.52943  -6.52919  -2.65709
 Alpha  occ. eigenvalues --   -2.65374  -2.65354  -2.64387  -2.64387  -1.02853
 Alpha  occ. eigenvalues --   -0.91254  -0.87863  -0.83688  -0.78843  -0.76879
 Alpha  occ. eigenvalues --   -0.71775  -0.67911  -0.62922  -0.57068  -0.55493
 Alpha  occ. eigenvalues --   -0.52196  -0.50972  -0.49573  -0.47988  -0.45683
 Alpha  occ. eigenvalues --   -0.45674  -0.43666  -0.41926  -0.40594  -0.39953
 Alpha  occ. eigenvalues --   -0.39271  -0.37307  -0.36248  -0.36169  -0.33654
 Alpha  occ. eigenvalues --   -0.33257  -0.29107  -0.29000  -0.28721  -0.23681
 Alpha virt. eigenvalues --   -0.02989  -0.02431  -0.00960   0.00363   0.00884
 Alpha virt. eigenvalues --    0.01207   0.02055   0.02480   0.02591   0.03339
 Alpha virt. eigenvalues --    0.03975   0.04226   0.05408   0.06042   0.06210

 Mulliken charges:
               1
     1  C   -0.334380
     2  N    0.109704
     3  C   -0.243428
     4  C   -0.215081
     5  C   -0.326848
     6  Br  -0.162704
     7  N   -0.185987
     8  C    0.050348
     9  C   -0.398056
    10  C    0.247373
    11  N   -0.512248
    12  H    0.171767
    13  H    0.142610
    14  H    0.140724
    15  H    0.145360
    16  H    0.148837
    17  H    0.168659
    18  H    0.154091
    19  H    0.177493
    20  H    0.194662
    21  H    0.126228
    22  H    0.196643
    23  H    0.204235
 Sum of Mulliken charges =  -0.00000

 Dipole moment (field-independent basis, Debye):
    X=             -3.9696    Y=              3.0481    Z=             -0.9762  Tot=              5.0992
 Quadrupole moment (field-independent basis, Debye-Ang):
   XX=           -109.1058   YY=            -76.1905   ZZ=            -81.5848
   XY=             -1.5051   XZ=            -12.9234   YZ=              3.6800

 Normal termination of Gaussian 16 at Thu Jul 31 20:35:14 2025.
