 Gaussian 16, Revision C.02,
 Gaussian 16:  ES64L-G16RevC.02  7-Dec-2021

 ----------------------------------------------------------
 # td=(50-50,nstates=3) b3lyp/6-31+g(d,p) geom=connectivity
 ----------------------------------------------------------

 -------------------
 Title Card Required
 -------------------
 Symbolic Z-matrix:
 Charge =  0 Multiplicity = 1

                         Standard orientation:
 ---------------------------------------------------------------------
 Center     Atomic      Atomic             Coordinates (Angstroms)
 Number     Number       Type             X           Y           Z
 ---------------------------------------------------------------------
      1          6           0        3.934821    2.068142   -0.013112
      2          8           0        3.362577    0.758801   -0.009529
      3          6           0        2.023838    0.617062   -0.001602
      4          6           0        1.130148    1.645819    0.003844
      5          6           0       -0.304929    1.450942    0.011355
      6          6           0       -1.162119    2.538714    0.015753
      7          6           0       -2.674792    2.542849    0.026657
      8          6           0       -0.571472    3.841641    0.015521
      9          7           0       -0.124410    4.919235    0.015613
     10          6           0       -0.755338    0.055691    0.013346
     11          8           0       -2.096120   -0.120679    0.019724
     12          6           0       -2.625297   -1.435299    0.000477
     13          6           0       -4.151966   -1.366829   -0.042580
     14          6           0       -4.853626   -2.702253    0.083236
     15          8           0       -4.743962   -0.314252   -0.159424
     16          6           0        0.141383   -0.975426    0.009287
     17          6           0        1.563422   -0.769654    0.001269
     18          6           0        2.426154   -1.864553   -0.002332
     19          6           0        3.853619   -1.828072   -0.008854
     20          7           0        5.015287   -1.920928   -0.013972
     21          6           0        1.876717   -3.184993    0.000798
     22          7           0        1.396817   -4.247498    0.003484
     23          1           0        3.643168    2.622602    0.885903
     24          1           0        5.012686    1.910569   -0.019648
     25          1           0        3.632257    2.622431   -0.908622
     26          1           0        1.490293    2.665748    0.001959
     27          1           0       -3.086787    1.985306   -0.817608
     28          1           0       -3.066181    2.059785    0.926573
     29          1           0       -3.043452    3.569005   -0.008822
     30          1           0       -2.273411   -1.985197   -0.884963
     31          1           0       -2.308593   -1.999793    0.889482
     32          1           0       -4.323728   -3.497870   -0.451063
     33          1           0       -4.891399   -2.988880    1.141826
     34          1           0       -5.875187   -2.614258   -0.289452
     35          1           0       -0.206856   -1.998759    0.014001
 ---------------------------------------------------------------------

 SCF Done:  E(RB3LYP) =  -1007.40007276     A.U. after   16 cycles

 Excitation energies and oscillator strengths:

 Excited State   1:      Triplet-A      0.9310 eV 1331.77 nm  f=0.0000  <S**2>=2.000
      77 -> 78         0.74291
      77 <- 78         0.25631
 This state for optimization and/or second-order correction.
 Total Energy, E(TD-HF/TD-DFT) =  -1007.36586022
 Copying the excited state density for this state as the 1-particle RhoCI density.

 Excited State   2:      Triplet-A      2.0968 eV  591.31 nm  f=0.0000  <S**2>=2.000
      76 -> 78         0.69611

 Excited State   3:      Singlet-A      2.7192 eV  455.95 nm  f=0.0751  <S**2>=0.000
      76 -> 78         0.63498
      77 -> 78         0.30172

 Excited State   4:      Singlet-A      3.0230 eV  410.14 nm  f=0.8079  <S**2>=0.000
      76 -> 78        -0.29952
      77 -> 78         0.64756
      77 <- 78        -0.14126

 Excited State   5:      Triplet-A      3.3254 eV  372.84 nm  f=0.0000  <S**2>=2.000
      74 -> 78         0.57961
      77 -> 79         0.15009
      77 -> 80        -0.34507

 Excited State   6:      Singlet-A      3.5693 eV  347.36 nm  f=0.0001  <S**2>=0.000
      75 -> 78         0.70662

 The electronic state is 1-A.
 Alpha  occ. eigenvalues --  -19.24317 -19.22550 -19.18809 -14.36784 -14.36484
 Alpha  occ. eigenvalues --  -14.35222 -10.32463 -10.31553 -10.30321 -10.29977
 Alpha  occ. eigenvalues --  -10.28477 -10.27889 -10.27846 -10.26868 -10.26759
 Alpha  occ. eigenvalues --  -10.25895 -10.25724 -10.24968 -10.23848 -10.23463
 Alpha  occ. eigenvalues --  -10.22821 -10.21486  -1.13469  -1.11355  -1.08478
 Alpha  occ. eigenvalues --   -0.93961  -0.93660  -0.91789  -0.91018  -0.87073
 Alpha  occ. eigenvalues --   -0.82753  -0.82009  -0.79736  -0.76813  -0.76205
 Alpha  occ. eigenvalues --   -0.72492  -0.69677  -0.67393  -0.63759  -0.61256
 Alpha  occ. eigenvalues --   -0.59117  -0.58120  -0.56947  -0.54768  -0.54089
 Alpha  occ. eigenvalues --   -0.52942  -0.51278  -0.50517  -0.49452  -0.48771
 Alpha  occ. eigenvalues --   -0.47553  -0.46544  -0.46398  -0.45606  -0.44694
 Alpha  occ. eigenvalues --   -0.44097  -0.43261  -0.42423  -0.41630  -0.41543
 Alpha  occ. eigenvalues --   -0.39817  -0.39332  -0.39062  -0.38971  -0.38577
 Alpha  occ. eigenvalues --   -0.38482  -0.37913  -0.37616  -0.35943  -0.35684
 Alpha  occ. eigenvalues --   -0.35464  -0.34373  -0.33508  -0.32686  -0.29454
 Alpha  occ. eigenvalues --   -0.26866  -0.24171
 Alpha virt. eigenvalues --   -0.14356  -0.06197  -0.04865  -0.02428  -0.02288
 Alpha virt. eigenvalues --   -0.01696  -0.00975   0.00059   0.00310   0.00761
 Alpha virt. eigenvalues --    0.01643   0.01755   0.01885   0.02485   0.02901

 Mulliken charges:
               1
     1  C   -0.126821
     2  O   -0.337309
     3  C   -0.322111
     4  C   -0.790934
     5  C    0.248697
     6  C    1.529011
     7  C   -0.523520
     8  C   -0.389807
     9  N   -0.489998
    10  C    0.226284
    11  O   -0.340561
    12  C    0.147614
    13  C    0.380892
    14  C   -0.652673
    15  O   -0.379846
    16  C   -0.297085
    17  C    0.007312
    18  C    1.570374
    19  C   -0.136725
    20  N   -0.520094
    21  C   -0.538357
    22  N   -0.487193
    23  H    0.156059
    24  H    0.169819
    25  H    0.156110
    26  H    0.148936
    27  H    0.201216
    28  H    0.191731
    29  H    0.162378
    30  H    0.173581
    31  H    0.170716
    32  H    0.166840
    33  H    0.186798
    34  H    0.194319
    35  H    0.144347
 Sum of Mulliken charges =  -0.00000

 Dipole moment (field-independent basis, Debye):
    X=             -5.1746    Y=              0.1940    Z=              0.3237  Tot=              5.1884
 Quadrupole moment (field-independent basis, Debye-Ang):
   XX=           -141.9509   YY=           -158.7738   ZZ=           -126.5423
   XY=             32.9455   XZ=             -1.6976   YZ=             -0.3026

 Normal termination of Gaussian 16 at Thu Jul 31 20:31:02 2025.
