 Gaussian 16, Revision C.02,
 Gaussian 16:  ES64L-G16RevC.02  7-Dec-2021

 ----------------------------------------------------------
 # td=(50-50,nstates=3) b3lyp/6-31+g(d,p) geom=connectivity
 ----------------------------------------------------------

 -------------------
 Title Card Required
 -------------------
 Symbolic Z-matrix:
 Charge =  0 Multiplicity = 1

                         Standard orientation:
 ---------------------------------------------------------------------
 Center     Atomic      Atomic             Coordinates (Angstroms)
 Number     Number       Type             X           Y           Z
 ---------------------------------------------------------------------
      1          6           0        3.221049   -1.930821    0.334426
      2          6           0        2.072347   -1.284352   -0.418821
      3          8           0        1.843186    0.010292    0.153143
      4          6           0        0.812718    0.746872   -0.491711
      5          6           0        0.948657    2.146681   -0.035590
      6          7           0        1.029619    3.255379    0.297948
      7          6           0       -0.591446    0.214342   -0.214387
      8          6           0       -1.017523    0.011690    1.105278
      9          6           0       -2.297162   -0.481810    1.358692
     10          6           0       -3.162403   -0.772377    0.297550
     11          6           0       -2.741657   -0.570234   -1.018145
     12          6           0       -1.456889   -0.079686   -1.272337
     13          1           0        3.430486   -2.921273   -0.083075
     14          1           0        4.126538   -1.321822    0.258117
     15          1           0        2.971124   -2.047558    1.393068
     16          1           0        1.161454   -1.893866   -0.344391
     17          1           0        2.318289   -1.169233   -1.486453
     18          1           0        0.978212    0.750167   -1.581820
     19          1           0       -0.344672    0.239855    1.926715
     20          1           0       -2.622653   -0.635408    2.383342
     21          1           0       -4.159482   -1.153461    0.497760
     22          1           0       -3.407798   -0.794991   -1.845843
     23          1           0       -1.130470    0.075769   -2.297929
 ---------------------------------------------------------------------

 SCF Done:  E(RB3LYP) =  -517.665856096     A.U. after   15 cycles

 Excitation energies and oscillator strengths:

 Excited State   1:      Triplet-A      3.6959 eV  335.46 nm  f=0.0000  <S**2>=2.000
      42 -> 44        -0.14701
      42 -> 45         0.40942
      43 -> 44         0.50728
      43 -> 45         0.15334
 This state for optimization and/or second-order correction.
 Total Energy, E(TD-HF/TD-DFT) =  -517.530033280
 Copying the excited state density for this state as the 1-particle RhoCI density.

 Excited State   2:      Triplet-A      4.5732 eV  271.11 nm  f=0.0000  <S**2>=2.000
      42 -> 44         0.56096
      42 -> 45        -0.11046
      43 -> 44         0.13281
      43 -> 45         0.37195

 Excited State   3:      Triplet-A      4.6007 eV  269.49 nm  f=0.0000  <S**2>=2.000
      42 -> 45         0.50130
      43 -> 44        -0.43390
      43 -> 45         0.20122

 Excited State   4:      Singlet-A      5.2369 eV  236.75 nm  f=0.0019  <S**2>=0.000
      42 -> 44         0.49248
      42 -> 45         0.14505
      43 -> 44         0.18357
      43 -> 45        -0.44310

 Excited State   5:      Singlet-A      5.6835 eV  218.15 nm  f=0.0331  <S**2>=0.000
      41 -> 44        -0.42395
      42 -> 44        -0.13239
      42 -> 45         0.17417
      43 -> 44         0.50050
      43 -> 45         0.11664

 Excited State   6:      Singlet-A      5.8564 eV  211.71 nm  f=0.0217  <S**2>=0.000
      41 -> 44         0.54441
      42 -> 44        -0.11620
      42 -> 45         0.26582
      43 -> 44         0.31404

 The electronic state is 1-A.
 Alpha  occ. eigenvalues --  -19.18466 -14.34926 -10.30159 -10.25330 -10.23847
 Alpha  occ. eigenvalues --  -10.22491 -10.21696 -10.21427 -10.21367 -10.21313
 Alpha  occ. eigenvalues --  -10.21258 -10.19278  -1.06625  -0.91451  -0.87958
 Alpha  occ. eigenvalues --   -0.81182  -0.76947  -0.76656  -0.71965  -0.63955
 Alpha  occ. eigenvalues --   -0.62701  -0.61147  -0.54895  -0.53685  -0.52556
 Alpha  occ. eigenvalues --   -0.49845  -0.47571  -0.46223  -0.44648  -0.44053
 Alpha  occ. eigenvalues --   -0.41082  -0.40386  -0.38970  -0.38361  -0.37314
 Alpha  occ. eigenvalues --   -0.36918  -0.36579  -0.34967  -0.34066  -0.33809
 Alpha  occ. eigenvalues --   -0.29073  -0.27484  -0.27081
 Alpha virt. eigenvalues --   -0.04281  -0.03282  -0.00940   0.00423   0.01115
 Alpha virt. eigenvalues --    0.01241   0.02125   0.02769   0.03030   0.03355
 Alpha virt. eigenvalues --    0.04069   0.04732   0.05198   0.06212   0.06508

 Mulliken charges:
               1
     1  C   -0.624394
     2  C    0.116013
     3  O   -0.228452
     4  C    0.251800
     5  C    0.096665
     6  N   -0.474115
     7  C   -0.258723
     8  C    0.131815
     9  C   -0.198555
    10  C   -0.024576
    11  C   -0.302878
    12  C   -0.018399
    13  H    0.147382
    14  H    0.165605
    15  H    0.163154
    16  H    0.142805
    17  H    0.120200
    18  H    0.139561
    19  H    0.143236
    20  H    0.133223
    21  H    0.130044
    22  H    0.131691
    23  H    0.116899
 Sum of Mulliken charges =  -0.00000

 Dipole moment (field-independent basis, Debye):
    X=             -1.3967    Y=             -4.6909    Z=             -1.7050  Tot=              5.1829
 Quadrupole moment (field-independent basis, Debye-Ang):
   XX=            -66.9956   YY=            -87.1146   ZZ=            -65.9020
   XY=             -4.4541   XZ=             -2.9267   YZ=             -2.6974

 Normal termination of Gaussian 16 at Thu Jul 31 20:32:55 2025.
