 Gaussian 16, Revision C.02,
 Gaussian 16:  ES64L-G16RevC.02  7-Dec-2021

 ----------------------------------------------------------
 # td=(50-50,nstates=3) b3lyp/6-31+g(d,p) geom=connectivity
 ----------------------------------------------------------

 -------------------
 Title Card Required
 -------------------
 Symbolic Z-matrix:
 Charge =  0 Multiplicity = 1

                         Standard orientation:
 ---------------------------------------------------------------------
 Center     Atomic      Atomic             Coordinates (Angstroms)
 Number     Number       Type             X           Y           Z
 ---------------------------------------------------------------------
      1          6           0        1.098222    2.775444   -0.077931
      2          7           0        0.724664    1.368407    0.041175
      3          6           0       -0.550918    0.959510   -0.494783
      4          6           0       -1.428999    0.209005    0.508127
      5          8           0       -1.214440    0.101145    1.687515
      6          6           0       -2.699418   -0.452972   -0.108210
      7          9           0       -3.363629    0.433846   -0.891024
      8          9           0       -2.327969   -1.494185   -0.897605
      9          9           0       -3.538795   -0.907076    0.821876
     10          7           0        1.782036    0.524392    0.031315
     11          6           0        1.652177   -0.738582   -0.133437
     12          6           0        2.862525   -1.645429   -0.084134
     13          6           0        4.148979   -0.945388   -0.023335
     14          7           0        5.190706   -0.435650    0.016980
     15          1           0        2.034202    2.919807    0.461350
     16          1           0        1.241616    3.084638   -1.124386
     17          1           0        0.325038    3.398141    0.380387
     18          1           0       -1.113712    1.848659   -0.801648
     19          1           0       -0.439051    0.343144   -1.403961
     20          1           0        0.698617   -1.253394   -0.275609
     21          1           0        2.793317   -2.313138    0.786512
     22          1           0        2.871788   -2.299860   -0.966059
 ---------------------------------------------------------------------

 SCF Done:  E(RB3LYP) =  -810.531051654     A.U. after   14 cycles

 Excitation energies and oscillator strengths:

 Excited State   1:      Triplet-A      3.0681 eV  404.11 nm  f=0.0000  <S**2>=2.000
      51 -> 54        -0.21569
      53 -> 54         0.67016
 This state for optimization and/or second-order correction.
 Total Energy, E(TD-HF/TD-DFT) =  -810.418301738
 Copying the excited state density for this state as the 1-particle RhoCI density.

 Excited State   2:      Singlet-A      3.1936 eV  388.22 nm  f=0.0004  <S**2>=0.000
      53 -> 54         0.70346

 Excited State   3:      Triplet-A      3.5016 eV  354.07 nm  f=0.0000  <S**2>=2.000
      47 -> 55         0.13439
      53 -> 55         0.65675
      53 -> 56        -0.19603

 Excited State   4:      Triplet-A      3.6717 eV  337.67 nm  f=0.0000  <S**2>=2.000
      51 -> 54         0.63784
      52 -> 54         0.18735
      53 -> 54         0.22139

 Excited State   5:      Singlet-A      4.2783 eV  289.80 nm  f=0.0001  <S**2>=0.000
      51 -> 54         0.65929
      52 -> 54         0.23349

 Excited State   6:      Singlet-A      4.9690 eV  249.51 nm  f=0.0123  <S**2>=0.000
      51 -> 54        -0.23306
      52 -> 54         0.66587

 The electronic state is 1-A.
 Alpha  occ. eigenvalues --  -24.78374 -24.78351 -24.78114 -19.21486 -14.41342
 Alpha  occ. eigenvalues --  -14.39670 -14.34253 -10.48033 -10.34411 -10.27841
 Alpha  occ. eigenvalues --  -10.25593 -10.25239 -10.23780 -10.23702  -1.35479
 Alpha  occ. eigenvalues --   -1.26975  -1.26753  -1.11450  -1.04453  -0.91251
 Alpha  occ. eigenvalues --   -0.88695  -0.81788  -0.79032  -0.76000  -0.69617
 Alpha  occ. eigenvalues --   -0.67019  -0.63305  -0.63262  -0.60516  -0.57690
 Alpha  occ. eigenvalues --   -0.55766  -0.53358  -0.51132  -0.50796  -0.50296
 Alpha  occ. eigenvalues --   -0.49641  -0.48374  -0.47852  -0.47122  -0.46586
 Alpha  occ. eigenvalues --   -0.45788  -0.45197  -0.45071  -0.44385  -0.42590
 Alpha  occ. eigenvalues --   -0.41463  -0.37980  -0.36605  -0.33418  -0.33324
 Alpha  occ. eigenvalues --   -0.31776  -0.30284  -0.24386
 Alpha virt. eigenvalues --   -0.09125  -0.02532  -0.01655  -0.00366   0.00934
 Alpha virt. eigenvalues --    0.01538   0.02353   0.02438   0.02691   0.03150
 Alpha virt. eigenvalues --    0.03904   0.04801   0.04885   0.06323   0.06468

 Mulliken charges:
               1
     1  C   -0.248615
     2  N    0.180218
     3  C   -0.562114
     4  C    0.231771
     5  O   -0.295722
     6  C    0.935848
     7  F   -0.292168
     8  F   -0.292960
     9  F   -0.297152
    10  N   -0.072066
    11  C    0.128078
    12  C   -0.525799
    13  C    0.241782
    14  N   -0.500827
    15  H    0.184524
    16  H    0.144070
    17  H    0.153604
    18  H    0.198482
    19  H    0.182744
    20  H    0.115534
    21  H    0.198756
    22  H    0.192012
 Sum of Mulliken charges =  -0.00000

 Dipole moment (field-independent basis, Debye):
    X=             -3.6071    Y=              0.2285    Z=             -2.3022  Tot=              4.2853
 Quadrupole moment (field-independent basis, Debye-Ang):
   XX=           -116.3274   YY=            -68.4663   ZZ=            -84.1505
   XY=             -7.2297   XZ=              0.6556   YZ=             -0.7431

 Normal termination of Gaussian 16 at Fri Aug  8 20:24:53 2025.
