 Gaussian 16, Revision C.02,
 Gaussian 16:  ES64L-G16RevC.02  7-Dec-2021

 ----------------------------------------------------------
 # td=(50-50,nstates=3) b3lyp/6-31+g(d,p) geom=connectivity
 ----------------------------------------------------------

 -------------------
 Title Card Required
 -------------------
 Symbolic Z-matrix:
 Charge =  0 Multiplicity = 1

                         Standard orientation:
 ---------------------------------------------------------------------
 Center     Atomic      Atomic             Coordinates (Angstroms)
 Number     Number       Type             X           Y           Z
 ---------------------------------------------------------------------
      1          6           0       -0.357421    2.320768    0.808226
      2          7           0       -0.133932    1.410432   -0.302639
      3          6           0        1.224815    0.991969   -0.607343
      4          7           0        1.880969    0.320579    0.518339
      5          6           0        1.486104   -1.093097    0.674360
      6          6           0        2.437511   -1.924547   -0.233184
      7          6           0        3.677926   -1.009443   -0.434377
      8          6           0        3.347047    0.258769    0.399944
      9          7           0       -1.099430    0.569363   -0.720404
     10          6           0       -2.312151    0.673468   -0.302685
     11          6           0       -3.347659   -0.262922   -0.884348
     12          6           0       -4.033022   -1.056637    0.146636
     13          7           0       -4.574535   -1.668720    0.972186
     14          1           0       -0.672355    1.789056    1.717941
     15          1           0        0.576105    2.840628    1.023640
     16          1           0       -1.125137    3.059828    0.548054
     17          1           0        1.144774    0.379395   -1.516859
     18          1           0        1.815048    1.885066   -0.840451
     19          1           0        1.626071   -1.371113    1.726085
     20          1           0        0.429286   -1.225733    0.433557
     21          1           0        1.961668   -2.154225   -1.191869
     22          1           0        2.694563   -2.880742    0.232750
     23          1           0        4.607409   -1.480597   -0.099709
     24          1           0        3.809054   -0.756519   -1.491943
     25          1           0        3.742360    1.184160   -0.030405
     26          1           0        3.764702    0.162231    1.410084
     27          1           0       -2.649823    1.403285    0.433803
     28          1           0       -4.116193    0.293654   -1.438819
     29          1           0       -2.857941   -0.939929   -1.591603
 ---------------------------------------------------------------------

 SCF Done:  E(RB3LYP) =  -571.562353284     A.U. after   14 cycles

 Excitation energies and oscillator strengths:

 Excited State   1:      Triplet-A      3.3764 eV  367.21 nm  f=0.0000  <S**2>=2.000
      48 -> 50        -0.27262
      49 -> 50         0.62283
 This state for optimization and/or second-order correction.
 Total Energy, E(TD-HF/TD-DFT) =  -571.438272357
 Copying the excited state density for this state as the 1-particle RhoCI density.

 Excited State   2:      Triplet-A      5.0813 eV  244.00 nm  f=0.0000  <S**2>=2.000
      47 -> 50         0.55125
      48 -> 50         0.36981
      49 -> 50         0.15230
      49 -> 51        -0.10138

 Excited State   3:      Triplet-A      5.1451 eV  240.97 nm  f=0.0000  <S**2>=2.000
      48 -> 50         0.25030
      48 -> 52        -0.10539
      49 -> 50         0.11285
      49 -> 51         0.61563
      49 -> 52         0.11487

 Excited State   4:      Singlet-A      5.1522 eV  240.65 nm  f=0.0162  <S**2>=0.000
      48 -> 50         0.54530
      49 -> 50         0.40155
      49 -> 51        -0.18878

 Excited State   5:      Singlet-A      5.2029 eV  238.30 nm  f=0.0084  <S**2>=0.000
      48 -> 50         0.17978
      48 -> 52        -0.11023
      49 -> 51         0.65662

 Excited State   6:      Singlet-A      5.3547 eV  231.54 nm  f=0.0301  <S**2>=0.000
      48 -> 51         0.63711
      48 -> 52        -0.13890
      49 -> 52        -0.24571

 The electronic state is 1-A.
 Alpha  occ. eigenvalues --  -14.39290 -14.38567 -14.34069 -14.33639 -10.25285
 Alpha  occ. eigenvalues --  -10.24389 -10.23491 -10.23348 -10.22723 -10.21694
 Alpha  occ. eigenvalues --  -10.21050 -10.19100 -10.18923  -1.03077  -0.94006
 Alpha  occ. eigenvalues --   -0.90895  -0.86291  -0.78760  -0.77022  -0.73083
 Alpha  occ. eigenvalues --   -0.72711  -0.67495  -0.59492  -0.58750  -0.56815
 Alpha  occ. eigenvalues --   -0.54493  -0.51883  -0.50613  -0.50175  -0.48203
 Alpha  occ. eigenvalues --   -0.46120  -0.45792  -0.44794  -0.43265  -0.42281
 Alpha  occ. eigenvalues --   -0.40731  -0.39845  -0.37872  -0.37430  -0.36624
 Alpha  occ. eigenvalues --   -0.35947  -0.34951  -0.34737  -0.33328  -0.32954
 Alpha  occ. eigenvalues --   -0.32799  -0.29101  -0.23291  -0.22632
 Alpha virt. eigenvalues --   -0.01449  -0.00675   0.00405   0.00987   0.01488
 Alpha virt. eigenvalues --    0.02254   0.02512   0.02675   0.03023   0.03785
 Alpha virt. eigenvalues --    0.04100   0.04470   0.05219   0.05568   0.06182

 Mulliken charges:
               1
     1  C   -0.285495
     2  N    0.137039
     3  C   -0.404721
     4  N   -0.102736
     5  C   -0.295602
     6  C   -0.230483
     7  C   -0.279855
     8  C   -0.146359
     9  N   -0.134838
    10  C   -0.087365
    11  C   -0.343636
    12  C    0.274498
    13  N   -0.508538
    14  H    0.159966
    15  H    0.159700
    16  H    0.142236
    17  H    0.148730
    18  H    0.123484
    19  H    0.141626
    20  H    0.159692
    21  H    0.148219
    22  H    0.144362
    23  H    0.142726
    24  H    0.143481
    25  H    0.125720
    26  H    0.144081
    27  H    0.130112
    28  H    0.191976
    29  H    0.201979
 Sum of Mulliken charges =  -0.00000

 Dipole moment (field-independent basis, Debye):
    X=              3.5933    Y=              2.8093    Z=             -1.9514  Tot=              4.9611
 Quadrupole moment (field-independent basis, Debye-Ang):
   XX=            -91.3841   YY=            -80.7916   ZZ=            -83.0564
   XY=            -11.9533   XZ=              9.7211   YZ=              4.3525

 Normal termination of Gaussian 16 at Thu Jul 31 16:20:33 2025.
