 Gaussian 16, Revision C.02,
 Gaussian 16:  ES64L-G16RevC.02  7-Dec-2021

 ----------------------------------------------------------
 # td=(50-50,nstates=3) b3lyp/6-31+g(d,p) geom=connectivity
 ----------------------------------------------------------

 -------------------
 Title Card Required
 -------------------
 Symbolic Z-matrix:
 Charge =  0 Multiplicity = 1

                         Standard orientation:
 ---------------------------------------------------------------------
 Center     Atomic      Atomic             Coordinates (Angstroms)
 Number     Number       Type             X           Y           Z
 ---------------------------------------------------------------------
      1          6           0        4.241083   -0.134210   -0.907171
      2          6           0        3.565461    0.540968    0.297831
      3          6           0        3.858176   -0.221083    1.600974
      4          6           0        2.055611    0.794602    0.073692
      5          6           0        1.210447   -0.472625   -0.124201
      6          6           0       -0.274868   -0.298017   -0.261747
      7          6           0       -1.021261    0.807031   -0.456989
      8          6           0       -0.631324    2.167604   -0.600908
      9          7           0       -0.392007    3.298002   -0.747690
     10          6           0       -2.500058    0.427438   -0.526894
     11          6           0       -3.262311    0.931275    0.646415
     12          7           0       -3.864743    1.319251    1.559866
     13          8           0       -2.499628   -0.987005   -0.576084
     14          6           0       -1.198970   -1.511826   -0.187922
     15          6           0       -1.294145   -2.078153    1.239561
     16          6           0       -0.845385   -2.603590   -1.202435
     17          1           0        5.327677   -0.168730   -0.772504
     18          1           0        3.900930   -1.168340   -1.040703
     19          1           0        4.038238    0.410003   -1.836798
     20          1           0        4.012858    1.539257    0.401508
     21          1           0        3.381978    0.261253    2.462325
     22          1           0        4.935963   -0.256741    1.793692
     23          1           0        3.506058   -1.258898    1.558491
     24          1           0        1.665857    1.355481    0.931849
     25          1           0        1.942778    1.447852   -0.798123
     26          1           0        1.553227   -1.015971   -1.016417
     27          1           0        1.377856   -1.165829    0.710411
     28          1           0       -2.987603    0.816991   -1.429492
     29          1           0       -0.341590   -2.512713    1.558266
     30          1           0       -1.580308   -1.300419    1.952912
     31          1           0       -2.054398   -2.864016    1.263366
     32          1           0        0.098888   -3.091362   -0.942208
     33          1           0       -1.633267   -3.362123   -1.203902
     34          1           0       -0.765609   -2.186908   -2.210485
 ---------------------------------------------------------------------

 SCF Done:  E(RB3LYP) =  -690.948798513     A.U. after   15 cycles

 Excitation energies and oscillator strengths:

 Excited State   1:      Triplet-A      3.3447 eV  370.69 nm  f=0.0000  <S**2>=2.000
      58 -> 60        -0.22786
      59 -> 60         0.66043
      59 <- 60         0.10254
 This state for optimization and/or second-order correction.
 Total Energy, E(TD-HF/TD-DFT) =  -690.825884374
 Copying the excited state density for this state as the 1-particle RhoCI density.

 Excited State   2:      Triplet-A      5.2496 eV  236.18 nm  f=0.0000  <S**2>=2.000
      58 -> 60         0.63283
      59 -> 60         0.22176

 Excited State   3:      Singlet-A      5.2580 eV  235.80 nm  f=0.0861  <S**2>=0.000
      58 -> 60         0.45495
      59 -> 60         0.53489

 Excited State   4:      Triplet-A      5.4868 eV  225.97 nm  f=0.0000  <S**2>=2.000
      52 -> 60         0.12955
      52 -> 63        -0.12888
      53 -> 60         0.16405
      54 -> 60        -0.13755
      56 -> 60         0.17502
      57 -> 60         0.49379
      59 -> 63        -0.18638

 Excited State   5:      Singlet-A      5.7865 eV  214.26 nm  f=0.1619  <S**2>=0.000
      57 -> 60         0.32225
      58 -> 60         0.45339
      59 -> 60        -0.37612

 Excited State   6:      Singlet-A      5.9338 eV  208.95 nm  f=0.0672  <S**2>=0.000
      52 -> 60         0.12079
      53 -> 60         0.10306
      56 -> 60         0.19242
      57 -> 60         0.53815
      58 -> 60        -0.26794
      59 -> 60         0.19621

 The electronic state is 1-A.
 Alpha  occ. eigenvalues --  -19.19597 -14.36061 -14.35902 -10.31719 -10.28907
 Alpha  occ. eigenvalues --  -10.26211 -10.25747 -10.25344 -10.24563 -10.22836
 Alpha  occ. eigenvalues --  -10.20927 -10.20894 -10.20638 -10.20446 -10.19122
 Alpha  occ. eigenvalues --  -10.19110  -1.08872  -0.92871  -0.92219  -0.87048
 Alpha  occ. eigenvalues --   -0.83729  -0.82639  -0.76908  -0.73336  -0.72272
 Alpha  occ. eigenvalues --   -0.69971  -0.69066  -0.65324  -0.60035  -0.57255
 Alpha  occ. eigenvalues --   -0.56273  -0.54377  -0.51861  -0.48977  -0.48161
 Alpha  occ. eigenvalues --   -0.47360  -0.45551  -0.45007  -0.43457  -0.42942
 Alpha  occ. eigenvalues --   -0.42497  -0.41449  -0.40556  -0.39912  -0.39575
 Alpha  occ. eigenvalues --   -0.38957  -0.38886  -0.38263  -0.38015  -0.37586
 Alpha  occ. eigenvalues --   -0.37305  -0.35759  -0.35071  -0.34467  -0.34330
 Alpha  occ. eigenvalues --   -0.33493  -0.32867  -0.30652  -0.28428
 Alpha virt. eigenvalues --   -0.07023  -0.02138  -0.01136  -0.00676  -0.00288
 Alpha virt. eigenvalues --    0.00280   0.00602   0.01761   0.02275   0.02480
 Alpha virt. eigenvalues --    0.02804   0.03528   0.03666   0.04863   0.05052

 Mulliken charges:
               1
     1  C   -0.538789
     2  C    0.144017
     3  C   -0.542431
     4  C   -0.385384
     5  C   -0.977832
     6  C    1.036146
     7  C   -0.069725
     8  C   -0.318330
     9  N   -0.532506
    10  C    0.600512
    11  C    0.145601
    12  N   -0.449074
    13  O   -0.196104
    14  C    0.031980
    15  C   -0.385293
    16  C   -0.383225
    17  H    0.149445
    18  H    0.138832
    19  H    0.146213
    20  H    0.138814
    21  H    0.146424
    22  H    0.149278
    23  H    0.136508
    24  H    0.158300
    25  H    0.163270
    26  H    0.175437
    27  H    0.156591
    28  H    0.182682
    29  H    0.148763
    30  H    0.171619
    31  H    0.169885
    32  H    0.155771
    33  H    0.171088
    34  H    0.161514
 Sum of Mulliken charges =  -0.00000

 Dipole moment (field-independent basis, Debye):
    X=              4.1089    Y=             -5.2178    Z=             -1.5506  Tot=              6.8200
 Quadrupole moment (field-independent basis, Debye-Ang):
   XX=           -108.8973   YY=           -110.9896   ZZ=           -101.3240
   XY=              5.0054   XZ=              9.5647   YZ=             -1.4117

 Normal termination of Gaussian 16 at Thu Jul 31 16:25:59 2025.
