 Gaussian 16, Revision C.02,
 Gaussian 16:  ES64L-G16RevC.02  7-Dec-2021

 ----------------------------------------------------------
 # td=(50-50,nstates=3) b3lyp/6-31+g(d,p) geom=connectivity
 ----------------------------------------------------------

 -------------------
 Title Card Required
 -------------------
 Symbolic Z-matrix:
 Charge =  0 Multiplicity = 1

                         Standard orientation:
 ---------------------------------------------------------------------
 Center     Atomic      Atomic             Coordinates (Angstroms)
 Number     Number       Type             X           Y           Z
 ---------------------------------------------------------------------
      1          6           0        5.903995   -0.944733    0.499666
      2          8           0        4.716527   -1.422894   -0.121659
      3          6           0        3.613362   -0.617686   -0.130620
      4          6           0        2.476980   -1.143434   -0.764143
      5          6           0        1.302542   -0.402004   -0.823788
      6          6           0        1.220821    0.884526   -0.256715
      7          6           0       -0.016020    1.717950   -0.348735
      8          6           0        0.057195    2.946124   -1.030442
      9          6           0       -1.046683    3.790802   -1.138761
     10          6           0       -2.258225    3.420463   -0.552874
     11          6           0       -2.347180    2.210968    0.135653
     12          6           0       -1.245930    1.349851    0.243297
     13          6           0       -1.380549    0.039577    1.023379
     14          6           0       -2.199244    0.224919    2.238188
     15          7           0       -2.836740    0.349005    3.201595
     16          6           0       -1.922716   -1.164182    0.224942
     17          6           0       -2.673231   -1.010249   -0.944929
     18          6           0       -3.154184   -2.132177   -1.628519
     19          6           0       -2.891085   -3.416537   -1.149535
     20          6           0       -2.141181   -3.576078    0.020044
     21          6           0       -1.660994   -2.456875    0.700574
     22          6           0        2.368016    1.395664    0.365041
     23          6           0        3.556527    0.661043    0.437255
     24          1           0        6.640450   -1.740692    0.384207
     25          1           0        6.272201   -0.034349    0.010369
     26          1           0        5.745242   -0.748064    1.567319
     27          1           0        2.537889   -2.131578   -1.208591
     28          1           0        0.439677   -0.821514   -1.331150
     29          1           0        1.000383    3.228932   -1.488790
     30          1           0       -0.959315    4.731156   -1.675189
     31          1           0       -3.125745    4.070078   -0.619819
     32          1           0       -3.281807    1.939812    0.618565
     33          1           0       -0.381566   -0.238248    1.379921
     34          1           0       -2.879225   -0.017960   -1.331706
     35          1           0       -3.734018   -1.997036   -2.537016
     36          1           0       -3.264718   -4.286250   -1.681917
     37          1           0       -1.928276   -4.570479    0.401440
     38          1           0       -1.078985   -2.588250    1.609402
     39          1           0        2.333540    2.383903    0.815285
     40          1           0        4.415949    1.093073    0.935918
 ---------------------------------------------------------------------

 SCF Done:  E(RB3LYP) =  -940.482834893     A.U. after   17 cycles

 Excitation energies and oscillator strengths:

 Excited State   1:      Triplet-A      3.4753 eV  356.76 nm  f=0.0000  <S**2>=2.000
      74 -> 81        -0.12761
      74 -> 86        -0.10343
      75 -> 84        -0.15335
      77 -> 80         0.21657
      77 -> 83        -0.12628
      78 -> 84         0.10217
      79 -> 80        -0.13567
      79 -> 81         0.46845
      79 -> 83        -0.11777
      79 -> 86        -0.15270
 This state for optimization and/or second-order correction.
 Total Energy, E(TD-HF/TD-DFT) =  -940.355120640
 Copying the excited state density for this state as the 1-particle RhoCI density.

 Excited State   2:      Triplet-A      3.7030 eV  334.82 nm  f=0.0000  <S**2>=2.000
      74 -> 82        -0.17286
      75 -> 80         0.14892
      75 -> 83         0.16198
      76 -> 80        -0.16155
      76 -> 82        -0.29817
      76 -> 84        -0.17869
      77 -> 80         0.11325
      77 -> 82         0.11466
      78 -> 80         0.21408
      78 -> 81         0.19289
      78 -> 83         0.30076

 Excited State   3:      Triplet-A      3.7404 eV  331.47 nm  f=0.0000  <S**2>=2.000
      74 -> 81        -0.22143
      74 -> 83         0.12780
      75 -> 80         0.19823
      75 -> 81        -0.11040
      75 -> 83        -0.10901
      76 -> 81         0.13046
      77 -> 80         0.13231
      77 -> 82         0.11962
      77 -> 84        -0.24154
      78 -> 80        -0.20224
      78 -> 81         0.16318
      79 -> 80         0.12713
      79 -> 84         0.13532
      79 -> 85        -0.14079
      79 -> 86         0.23872

 Excited State   4:      Singlet-A      4.6311 eV  267.72 nm  f=0.0292  <S**2>=0.000
      77 -> 81        -0.16391
      79 -> 80         0.66135
      79 -> 83        -0.10764

 Excited State   5:      Singlet-A      4.7415 eV  261.48 nm  f=0.2087  <S**2>=0.000
      79 -> 81         0.68833

 Excited State   6:      Singlet-A      4.8699 eV  254.59 nm  f=0.0117  <S**2>=0.000
      75 -> 81        -0.13013
      79 -> 80         0.10309
      79 -> 82         0.61401
      79 -> 83         0.11049
      79 -> 84        -0.19780

 The electronic state is 1-A.
 Alpha  occ. eigenvalues --  -19.19732 -14.33933 -10.26454 -10.25363 -10.25277
 Alpha  occ. eigenvalues --  -10.23262 -10.22304 -10.22263 -10.21855 -10.20945
 Alpha  occ. eigenvalues --  -10.20786 -10.20711 -10.20674 -10.20645 -10.20628
 Alpha  occ. eigenvalues --  -10.20586 -10.20579 -10.20533 -10.20531 -10.20523
 Alpha  occ. eigenvalues --  -10.20508 -10.20490 -10.20030  -1.07997  -0.91193
 Alpha  occ. eigenvalues --   -0.88681  -0.87249  -0.86080  -0.81782  -0.79139
 Alpha  occ. eigenvalues --   -0.76376  -0.76226  -0.75769  -0.74779  -0.71982
 Alpha  occ. eigenvalues --   -0.70300  -0.63468  -0.62770  -0.61874  -0.61473
 Alpha  occ. eigenvalues --   -0.60606  -0.58607  -0.54885  -0.53707  -0.53080
 Alpha  occ. eigenvalues --   -0.51405  -0.49581  -0.49086  -0.48121  -0.47870
 Alpha  occ. eigenvalues --   -0.46696  -0.45851  -0.45795  -0.44567  -0.43866
 Alpha  occ. eigenvalues --   -0.43542  -0.43477  -0.42897  -0.42776  -0.40112
 Alpha  occ. eigenvalues --   -0.39242  -0.38177  -0.37960  -0.37406  -0.36925
 Alpha  occ. eigenvalues --   -0.36502  -0.36141  -0.35488  -0.35292  -0.34049
 Alpha  occ. eigenvalues --   -0.33553  -0.32671  -0.32512  -0.27130  -0.27013
 Alpha  occ. eigenvalues --   -0.26629  -0.26351  -0.25979  -0.23052
 Alpha virt. eigenvalues --   -0.03701  -0.03638  -0.02910  -0.02457  -0.01674
 Alpha virt. eigenvalues --   -0.00614  -0.00285   0.00162   0.00745   0.01444
 Alpha virt. eigenvalues --    0.01887   0.02193   0.02457   0.02896   0.03233

 Mulliken charges:
               1
     1  C   -0.147500
     2  O   -0.352026
     3  C   -0.275130
     4  C    0.121235
     5  C   -0.164398
     6  C   -0.058861
     7  C   -0.159222
     8  C   -0.182178
     9  C   -0.086182
    10  C   -0.131351
    11  C   -0.355946
    12  C    0.930435
    13  C   -0.455608
    14  C   -0.249575
    15  N   -0.421492
    16  C    0.853572
    17  C   -0.437225
    18  C   -0.540220
    19  C   -0.040052
    20  C   -0.088990
    21  C    0.054983
    22  C   -0.572140
    23  C    0.445932
    24  H    0.151696
    25  H    0.145036
    26  H    0.145053
    27  H    0.134209
    28  H    0.133200
    29  H    0.129060
    30  H    0.128968
    31  H    0.129518
    32  H    0.134885
    33  H    0.193579
    34  H    0.130800
    35  H    0.128797
    36  H    0.127399
    37  H    0.129845
    38  H    0.121874
    39  H    0.127366
    40  H    0.120656
 Sum of Mulliken charges =  -0.00000

 Dipole moment (field-independent basis, Debye):
    X=              3.6487    Y=              0.0266    Z=             -3.0055  Tot=              4.7272
 Quadrupole moment (field-independent basis, Debye-Ang):
   XX=           -123.5424   YY=           -123.2613   ZZ=           -148.7342
   XY=              3.2083   XZ=             20.8682   YZ=             -3.3219

 Normal termination of Gaussian 16 at Thu Jul 31 16:41:40 2025.
