 Gaussian 16, Revision C.02,
 Gaussian 16:  ES64L-G16RevC.02  7-Dec-2021

 ----------------------------------------------------------
 # td=(50-50,nstates=3) b3lyp/6-31+g(d,p) geom=connectivity
 ----------------------------------------------------------

 -------------------
 Title Card Required
 -------------------
 Symbolic Z-matrix:
 Charge =  0 Multiplicity = 1

                         Standard orientation:
 ---------------------------------------------------------------------
 Center     Atomic      Atomic             Coordinates (Angstroms)
 Number     Number       Type             X           Y           Z
 ---------------------------------------------------------------------
      1          6           0       -2.185554    2.908929    0.031955
      2          6           0       -3.306700    1.916797   -0.188953
      3          6           0       -4.389430    2.304817   -1.068382
      4          6           0       -5.464154    1.510926   -1.358581
      5          6           0       -5.494236    0.223281   -0.747913
      6          7           0       -6.402727   -0.734944   -0.861549
      7          8           0       -5.957334   -1.765808   -0.078202
      8          7           0       -4.710608   -1.402805    0.541474
      9          8           0       -4.152372   -2.222607    1.275711
     10          6           0       -4.427544   -0.158781    0.120498
     11          6           0       -3.312898    0.679338    0.430497
     12          6           0       -2.225212    0.204262    1.381251
     13          6           0       -1.226553   -0.700709    0.709058
     14          6           0        0.095719   -0.442869    0.605813
     15          6           0        1.025230   -1.341956   -0.028405
     16          6           0        2.367552   -1.149676   -0.171631
     17          6           0        3.292381   -2.055265   -0.805872
     18          6           0        4.583831   -1.629556   -0.824909
     19          6           0        4.775887   -0.342951   -0.201714
     20          6           0        5.976289    0.336804   -0.078984
     21          6           0        6.049069    1.610322    0.555364
     22          7           0        6.076782    2.651892    1.078411
     23          6           0        7.179640   -0.229266   -0.593800
     24          7           0        8.151197   -0.710241   -1.022174
     25         16           0        3.251058    0.290544    0.407083
     26          1           0       -2.304480    3.780267   -0.616078
     27          1           0       -2.162638    3.271940    1.066529
     28          1           0       -1.206491    2.468937   -0.182872
     29          1           0       -4.332425    3.291682   -1.518522
     30          1           0       -6.262464    1.827250   -2.019908
     31          1           0       -1.714910    1.065300    1.818979
     32          1           0       -2.694183   -0.351597    2.202347
     33          1           0       -1.622598   -1.629496    0.299806
     34          1           0        0.489597    0.481050    1.028450
     35          1           0        0.621347   -2.268574   -0.433688
     36          1           0        2.953987   -2.996492   -1.225968
     37          1           0        5.413569   -2.175636   -1.257384
 ---------------------------------------------------------------------

 SCF Done:  E(RB3LYP) =  -1460.61634742     A.U. after   18 cycles

 Excitation energies and oscillator strengths:

 Excited State   1:      Triplet-A      1.2219 eV 1014.69 nm  f=0.0000  <S**2>=2.000
      89 -> 91        -0.10159
      90 -> 91         0.70415
      90 <- 91         0.18214
 This state for optimization and/or second-order correction.
 Total Energy, E(TD-HF/TD-DFT) =  -1460.57144392
 Copying the excited state density for this state as the 1-particle RhoCI density.

 Excited State   2:      Triplet-A      1.2714 eV  975.17 nm  f=0.0000  <S**2>=2.000
      89 -> 91        -0.14159
      89 -> 92         0.69519
      90 -> 92         0.14870
      89 <- 92         0.22439

 Excited State   3:      Triplet-A      2.6500 eV  467.86 nm  f=0.0000  <S**2>=2.000
      89 -> 91         0.67916
      89 -> 92         0.12410
      90 -> 91         0.10330

 Excited State   4:      Singlet-A      2.6606 eV  466.00 nm  f=0.0621  <S**2>=0.000
      89 -> 91         0.66363
      90 -> 91         0.23624

 Excited State   5:      Singlet-A      2.8326 eV  437.70 nm  f=0.1742  <S**2>=0.000
      89 -> 91         0.12902
      90 -> 91        -0.32257
      90 -> 92         0.61312

 Excited State   6:      Singlet-A      3.0237 eV  410.04 nm  f=0.8466  <S**2>=0.000
      89 -> 91        -0.18376
      89 -> 92        -0.18193
      90 -> 91         0.56585
      90 -> 92         0.32959
      90 <- 91        -0.10770

 The electronic state is 1-A.
 Alpha  occ. eigenvalues --  -88.94830 -19.30219 -19.20811 -14.56653 -14.43051
 Alpha  occ. eigenvalues --  -14.35960 -14.35773 -10.29552 -10.28579 -10.28128
 Alpha  occ. eigenvalues --  -10.27636 -10.27402 -10.25867 -10.25540 -10.25442
 Alpha  occ. eigenvalues --  -10.25330 -10.25303 -10.25212 -10.24687 -10.24605
 Alpha  occ. eigenvalues --  -10.24400 -10.24301 -10.23956 -10.23899 -10.22247
 Alpha  occ. eigenvalues --   -8.00768  -5.97240  -5.96877  -5.96353  -1.24030
 Alpha  occ. eigenvalues --   -1.13800  -0.94282  -0.94208  -0.92272  -0.91944
 Alpha  occ. eigenvalues --   -0.90383  -0.87482  -0.86389  -0.84384  -0.82013
 Alpha  occ. eigenvalues --   -0.79346  -0.78065  -0.76367  -0.73056  -0.70095
 Alpha  occ. eigenvalues --   -0.68557  -0.66685  -0.63297  -0.62507  -0.61165
 Alpha  occ. eigenvalues --   -0.59310  -0.57469  -0.57018  -0.56080  -0.55919
 Alpha  occ. eigenvalues --   -0.55257  -0.53088  -0.50718  -0.49159  -0.48810
 Alpha  occ. eigenvalues --   -0.47832  -0.46612  -0.46356  -0.45470  -0.44837
 Alpha  occ. eigenvalues --   -0.44356  -0.44148  -0.43373  -0.42143  -0.41990
 Alpha  occ. eigenvalues --   -0.41541  -0.40945  -0.40274  -0.39985  -0.39770
 Alpha  occ. eigenvalues --   -0.38605  -0.38099  -0.37928  -0.37799  -0.35905
 Alpha  occ. eigenvalues --   -0.35750  -0.35670  -0.34755  -0.31805  -0.31542
 Alpha  occ. eigenvalues --   -0.31236  -0.30705  -0.29835  -0.24498  -0.23629
 Alpha virt. eigenvalues --   -0.13112  -0.11627  -0.05666  -0.03536  -0.03166
 Alpha virt. eigenvalues --   -0.02617  -0.02047  -0.01376  -0.00712  -0.00387
 Alpha virt. eigenvalues --   -0.00082   0.00102   0.00861   0.01085   0.01333

 Mulliken charges:
               1
     1  C   -0.631729
     2  C    0.419987
     3  C   -0.513459
     4  C    0.019216
     5  C   -1.088449
     6  N   -0.246400
     7  O    0.434686
     8  N   -0.868277
     9  O   -0.024523
    10  C    0.679057
    11  C    0.763980
    12  C   -0.006417
    13  C   -0.045160
    14  C   -0.011818
    15  C    0.066167
    16  C   -0.207722
    17  C   -0.012229
    18  C    0.076525
    19  C    0.211198
    20  C    1.074265
    21  C   -0.336881
    22  N   -0.474945
    23  C   -0.321303
    24  N   -0.504166
    25  S   -0.325200
    26  H    0.157255
    27  H    0.176746
    28  H    0.175874
    29  H    0.137321
    30  H    0.156984
    31  H    0.139190
    32  H    0.193611
    33  H    0.150156
    34  H    0.120122
    35  H    0.140440
    36  H    0.152757
    37  H    0.173142
 Sum of Mulliken charges =  -0.00000

 Dipole moment (field-independent basis, Debye):
    X=             -6.7464    Y=              0.6831    Z=             -1.4878  Tot=              6.9422
 Quadrupole moment (field-independent basis, Debye-Ang):
   XX=           -239.8798   YY=           -153.4023   ZZ=           -154.3218
   XY=            -37.2783   XZ=              2.0708   YZ=             -0.9610

 Normal termination of Gaussian 16 at Thu Jul 31 16:33:23 2025.
