 Gaussian 16, Revision C.02,
 Gaussian 16:  ES64L-G16RevC.02  7-Dec-2021

 ----------------------------------------------------------
 # td=(50-50,nstates=3) b3lyp/6-31+g(d,p) geom=connectivity
 ----------------------------------------------------------

 -------------------
 Title Card Required
 -------------------
 Symbolic Z-matrix:
 Charge =  0 Multiplicity = 1

                         Standard orientation:
 ---------------------------------------------------------------------
 Center     Atomic      Atomic             Coordinates (Angstroms)
 Number     Number       Type             X           Y           Z
 ---------------------------------------------------------------------
      1          6           0        2.199564    2.715102   -0.402266
      2          6           0        0.832650    2.073276   -0.269334
      3          6           0       -0.228967    2.897678    0.188104
      4          6           0       -1.484026    2.399824    0.435360
      5          6           0       -1.779227    1.040505    0.158235
      6          7           0       -3.018856    0.578195    0.470348
      7          6           0       -3.253957   -0.693401    0.186729
      8          7           0       -4.406839   -1.259675    0.647442
      9          7           0       -2.461033   -1.499541   -0.567592
     10          6           0       -1.270181   -1.045874   -0.910458
     11          7           0       -0.562158   -1.854821   -1.783218
     12          6           0       -0.761161    0.223370   -0.432388
     13          6           0        0.581420    0.724837   -0.542769
     14          6           0        1.759595   -0.200436   -0.808595
     15          6           0        2.620508   -0.450513    0.481514
     16          6           0        1.859071   -1.149253    1.532381
     17          7           0        1.250779   -1.685196    2.361997
     18          6           0        3.841383   -1.204308    0.141948
     19          7           0        4.806164   -1.765858   -0.174807
     20          1           0        2.822348    2.250121   -1.171320
     21          1           0        2.090671    3.770450   -0.669532
     22          1           0        2.765818    2.693508    0.539066
     23          1           0       -0.021853    3.946863    0.384337
     24          1           0       -2.275749    3.017859    0.845137
     25          1           0       -4.695265   -2.140624    0.252745
     26          1           0       -5.105119   -0.647672    1.039589
     27          1           0       -0.037795   -1.390050   -2.511617
     28          1           0       -1.125453   -2.624893   -2.125096
     29          1           0        1.447108   -1.181283   -1.155519
     30          1           0        2.438081    0.218641   -1.557638
     31          1           0        2.940766    0.510518    0.899898
 ---------------------------------------------------------------------

 SCF Done:  E(RB3LYP) =  -831.161782512     A.U. after   17 cycles

 Excitation energies and oscillator strengths:

 Excited State   1:      Triplet-A      2.6642 eV  465.37 nm  f=0.0000  <S**2>=2.000
      64 -> 67        -0.14765
      66 -> 67         0.66318
      66 -> 68         0.10061
 This state for optimization and/or second-order correction.
 Total Energy, E(TD-HF/TD-DFT) =  -831.063874959
 Copying the excited state density for this state as the 1-particle RhoCI density.

 Excited State   2:      Triplet-A      3.4493 eV  359.45 nm  f=0.0000  <S**2>=2.000
      62 -> 68        -0.10232
      63 -> 67         0.19114
      64 -> 67        -0.29469
      65 -> 67        -0.24311
      66 -> 67        -0.21613
      66 -> 68         0.47868

 Excited State   3:      Singlet-A      3.6231 eV  342.21 nm  f=0.0731  <S**2>=0.000
      66 -> 67         0.68693

 Excited State   4:      Triplet-A      3.7953 eV  326.68 nm  f=0.0000  <S**2>=2.000
      64 -> 67         0.32950
      65 -> 67         0.37039
      66 -> 68         0.46620

 Excited State   5:      Singlet-A      4.2051 eV  294.84 nm  f=0.0015  <S**2>=0.000
      64 -> 67        -0.24233
      65 -> 67         0.65541

 Excited State   6:      Singlet-A      4.4791 eV  276.80 nm  f=0.0552  <S**2>=0.000
      64 -> 67        -0.38986
      65 -> 67        -0.12015
      66 -> 67         0.10454
      66 -> 68         0.55444

 The electronic state is 1-A.
 Alpha  occ. eigenvalues --  -14.37693 -14.37045 -14.36543 -14.36113 -14.34083
 Alpha  occ. eigenvalues --  -14.32564 -10.30553 -10.29766 -10.29619 -10.26299
 Alpha  occ. eigenvalues --  -10.25798 -10.24517 -10.24249 -10.23425 -10.22342
 Alpha  occ. eigenvalues --  -10.22336 -10.21310 -10.21246 -10.20395  -1.01557
 Alpha  occ. eigenvalues --   -0.95943  -0.94399  -0.92881  -0.91123  -0.88478
 Alpha  occ. eigenvalues --   -0.87282  -0.84859  -0.78934  -0.78382  -0.73005
 Alpha  occ. eigenvalues --   -0.69783  -0.66787  -0.65071  -0.61298  -0.59834
 Alpha  occ. eigenvalues --   -0.57300  -0.55852  -0.55450  -0.54141  -0.51141
 Alpha  occ. eigenvalues --   -0.50672  -0.48384  -0.47690  -0.46819  -0.45809
 Alpha  occ. eigenvalues --   -0.44954  -0.44254  -0.43644  -0.42093  -0.41360
 Alpha  occ. eigenvalues --   -0.39437  -0.38814  -0.38595  -0.37857  -0.37614
 Alpha  occ. eigenvalues --   -0.36772  -0.36558  -0.35950  -0.35333  -0.34671
 Alpha  occ. eigenvalues --   -0.32374  -0.30139  -0.28062  -0.26621  -0.26113
 Alpha  occ. eigenvalues --   -0.22166
 Alpha virt. eigenvalues --   -0.06905  -0.03314  -0.02741  -0.01927  -0.01004
 Alpha virt. eigenvalues --   -0.00553   0.00278   0.00774   0.00957   0.01302
 Alpha virt. eigenvalues --    0.01697   0.02335   0.02877   0.03183   0.04027

 Mulliken charges:
               1
     1  C   -0.683907
     2  C    0.059145
     3  C    0.071717
     4  C   -0.760811
     5  C    0.134799
     6  N   -0.347573
     7  C    0.546236
     8  N   -0.534560
     9  N   -0.344650
    10  C   -0.134957
    11  N   -0.566887
    12  C    0.987920
    13  C   -0.076686
    14  C   -0.516638
    15  C    0.504133
    16  C    0.067507
    17  N   -0.388740
    18  C   -0.129025
    19  N   -0.436182
    20  H    0.148061
    21  H    0.162897
    22  H    0.158570
    23  H    0.126064
    24  H    0.141651
    25  H    0.303742
    26  H    0.306985
    27  H    0.296629
    28  H    0.333314
    29  H    0.187201
    30  H    0.168394
    31  H    0.215650
 Sum of Mulliken charges =  -0.00000

 Dipole moment (field-independent basis, Debye):
    X=             -1.7647    Y=              3.1817    Z=             -3.7465  Tot=              5.2224
 Quadrupole moment (field-independent basis, Debye-Ang):
   XX=           -117.3307   YY=           -110.2595   ZZ=           -113.2461
   XY=             19.6415   XZ=             -0.2416   YZ=              9.1982

 Normal termination of Gaussian 16 at Thu Jul 31 16:39:12 2025.
