 Gaussian 16, Revision C.02,
 Gaussian 16:  ES64L-G16RevC.02  7-Dec-2021

 ----------------------------------------------------------
 # td=(50-50,nstates=3) b3lyp/6-31+g(d,p) geom=connectivity
 ----------------------------------------------------------

 -------------------
 Title Card Required
 -------------------
 Symbolic Z-matrix:
 Charge =  0 Multiplicity = 1

                         Standard orientation:
 ---------------------------------------------------------------------
 Center     Atomic      Atomic             Coordinates (Angstroms)
 Number     Number       Type             X           Y           Z
 ---------------------------------------------------------------------
      1          6           0       -2.525483   -0.444728   -0.176650
      2          6           0       -1.141795   -0.275043    0.422871
      3          8           0       -0.434219    0.697765   -0.359734
      4          6           0        0.853025    1.002248    0.119012
      5          6           0        1.809278   -0.122970   -0.015811
      6          7           0        2.552071   -1.009548   -0.117997
      7          1           0       -3.093682   -1.182044    0.399799
      8          1           0       -3.073012    0.502419   -0.165036
      9          1           0       -2.456634   -0.793148   -1.211282
     10          1           0       -0.591453   -1.226452    0.414759
     11          1           0       -1.202609    0.075445    1.465172
     12          1           0        1.222947    1.844074   -0.473299
     13          1           0        0.833543    1.307380    1.177208
 ---------------------------------------------------------------------

 SCF Done:  E(RB3LYP) =  -286.602016656     A.U. after   12 cycles

 Excitation energies and oscillator strengths:

 Excited State   1:      Triplet-A      5.7388 eV  216.05 nm  f=0.0000  <S**2>=2.000
      20 -> 24        -0.18753
      20 -> 27         0.12407
      21 -> 24         0.41770
      21 -> 25        -0.24125
      21 -> 26         0.10564
      22 -> 24         0.10904
      22 -> 26        -0.18151
      22 -> 27        -0.24325
      23 -> 24        -0.12361
 This state for optimization and/or second-order correction.
 Total Energy, E(TD-HF/TD-DFT) =  -286.391119475
 Copying the excited state density for this state as the 1-particle RhoCI density.

 Excited State   2:      Triplet-A      6.2354 eV  198.84 nm  f=0.0000  <S**2>=2.000
      23 -> 24         0.64311
      23 -> 25        -0.20019

 Excited State   3:      Triplet-A      6.4047 eV  193.58 nm  f=0.0000  <S**2>=2.000
      20 -> 24        -0.16242
      21 -> 24        -0.13209
      21 -> 25         0.11089
      21 -> 26        -0.17604
      21 -> 27        -0.19028
      22 -> 24         0.49753
      22 -> 25        -0.23496

 Excited State   4:      Singlet-A      6.5685 eV  188.76 nm  f=0.0018  <S**2>=0.000
      23 -> 24         0.69490
      23 -> 25        -0.11131

 Excited State   5:      Singlet-A      7.1319 eV  173.84 nm  f=0.0235  <S**2>=0.000
      23 -> 24         0.11415
      23 -> 25         0.68248

 Excited State   6:      Singlet-A      7.1800 eV  172.68 nm  f=0.0017  <S**2>=0.000
      20 -> 24        -0.12805
      21 -> 24        -0.15161
      22 -> 24         0.59189
      22 -> 25        -0.23981
      23 -> 25         0.10180

 The electronic state is 1-A.
 Alpha  occ. eigenvalues --  -19.19060 -14.35694 -10.29808 -10.25578 -10.24518
 Alpha  occ. eigenvalues --  -10.19455  -1.07112  -0.92055  -0.79800  -0.73554
 Alpha  occ. eigenvalues --   -0.63813  -0.55275  -0.52624  -0.50513  -0.47316
 Alpha  occ. eigenvalues --   -0.40915  -0.40018  -0.38680  -0.37673  -0.36348
 Alpha  occ. eigenvalues --   -0.34947  -0.33589  -0.29796
 Alpha virt. eigenvalues --   -0.01431  -0.00107   0.01202   0.01886   0.02782
 Alpha virt. eigenvalues --    0.03060   0.05201   0.05896   0.05913   0.07087
 Alpha virt. eigenvalues --    0.07842   0.08978   0.10073   0.10542   0.11768

 Mulliken charges:
               1
     1  C   -0.559338
     2  C   -0.038793
     3  O   -0.310773
     4  C   -0.003776
     5  C    0.318372
     6  N   -0.508558
     7  H    0.150274
     8  H    0.163381
     9  H    0.167813
    10  H    0.148392
    11  H    0.123862
    12  H    0.183567
    13  H    0.165577
 Sum of Mulliken charges =  -0.00000

 Dipole moment (field-independent basis, Debye):
    X=             -2.4041    Y=              1.9415    Z=              1.4508  Tot=              3.4138
 Quadrupole moment (field-independent basis, Debye-Ang):
   XX=            -43.1978   YY=            -37.3940   ZZ=            -36.7454
   XY=              8.1028   XZ=             -0.2284   YZ=              0.5182

 Normal termination of Gaussian 16 at Thu Jul 31 16:39:44 2025.
