 Gaussian 16, Revision C.02,
 Gaussian 16:  ES64L-G16RevC.02  7-Dec-2021

 ----------------------------------------------------------
 # td=(50-50,nstates=3) b3lyp/6-31+g(d,p) geom=connectivity
 ----------------------------------------------------------

 -------------------
 Title Card Required
 -------------------
 Symbolic Z-matrix:
 Charge =  0 Multiplicity = 1

                         Standard orientation:
 ---------------------------------------------------------------------
 Center     Atomic      Atomic             Coordinates (Angstroms)
 Number     Number       Type             X           Y           Z
 ---------------------------------------------------------------------
      1          6           0        1.716706    0.809337    2.838622
      2          6           0        1.800408    1.135337    1.536928
      3          6           0        1.227760    2.376958    1.075899
      4          7           0        0.790753    3.392185    0.714367
      5          6           0        2.537056    0.349747    0.522653
      6          6           0        2.467724   -0.906744    0.042851
      7          6           0        1.570311   -2.098340    0.325601
      8          6           0        1.404796   -2.458398    1.814463
      9          6           0        0.203388   -2.079143   -0.429348
     10          6           0       -0.850390   -1.065987    0.032098
     11          7           0       -0.760183    0.309241   -0.546456
     12          6           0       -0.149500    0.535849   -1.857575
     13          6           0       -2.063108    0.850545   -0.388015
     14          6           0       -2.429589    2.194922   -0.491822
     15          6           0       -3.770110    2.535651   -0.278967
     16          6           0       -4.722433    1.559447    0.035854
     17          6           0       -4.343593    0.213228    0.131851
     18          6           0       -3.013360   -0.137029   -0.082964
     19          6           0       -2.352843   -1.510481   -0.118994
     20          6           0       -2.781524   -2.425126    1.038166
     21          6           0       -2.662363   -2.202636   -1.467376
     22          6           0        3.516969   -1.010284   -1.040347
     23          6           0        4.137404    0.374080   -1.087735
     24          8           0        5.015400    0.808481   -1.783143
     25          8           0        3.508857    1.137719   -0.125984
     26          1           0        2.200072   -0.080374    3.222605
     27          1           0        1.171189    1.435931    3.535730
     28          1           0        2.107292   -2.946929   -0.120135
     29          1           0        0.908142   -3.430387    1.907076
     30          1           0        2.380341   -2.532788    2.305881
     31          1           0        0.804813   -1.727725    2.359532
     32          1           0        0.381795   -1.990336   -1.506085
     33          1           0       -0.220933   -3.080161   -0.285632
     34          1           0       -0.721164   -0.915318    1.112558
     35          1           0        0.897739    0.229116   -1.849425
     36          1           0       -0.662400    0.019317   -2.686022
     37          1           0       -0.168891    1.607359   -2.066095
     38          1           0       -1.688758    2.960040   -0.700050
     39          1           0       -4.069327    3.577936   -0.344113
     40          1           0       -5.755789    1.845426    0.208358
     41          1           0       -5.087036   -0.545177    0.365435
     42          1           0       -3.844629   -2.678235    0.963266
     43          1           0       -2.223629   -3.369540    1.025336
     44          1           0       -2.620255   -1.943655    2.008353
     45          1           0       -2.174000   -3.181331   -1.540830
     46          1           0       -3.741499   -2.362393   -1.565606
     47          1           0       -2.343133   -1.593240   -2.317671
     48          1           0        4.294554   -1.753581   -0.821572
     49          1           0        3.105210   -1.269126   -2.024308
 ---------------------------------------------------------------------

 SCF Done:  E(RB3LYP) =  -1074.64567146     A.U. after   16 cycles

 Excitation energies and oscillator strengths:

 Excited State   1:      Triplet-A      2.6895 eV  460.99 nm  f=0.0000  <S**2>=2.000
      90 -> 91         0.70227
 This state for optimization and/or second-order correction.
 Total Energy, E(TD-HF/TD-DFT) =  -1074.54683420
 Copying the excited state density for this state as the 1-particle RhoCI density.

 Excited State   2:      Singlet-A      2.7533 eV  450.31 nm  f=0.0189  <S**2>=0.000
      90 -> 91         0.70568

 Excited State   3:      Triplet-A      2.9346 eV  422.49 nm  f=0.0000  <S**2>=2.000
      85 -> 91         0.30491
      86 -> 91         0.13155
      88 -> 91         0.57281
      88 -> 92         0.13982

 Excited State   4:      Triplet-A      3.5030 eV  353.94 nm  f=0.0000  <S**2>=2.000
      87 -> 97        -0.15466
      89 -> 94        -0.31194
      90 -> 93         0.12458
      90 -> 94         0.14889
      90 -> 95        -0.19249
      90 -> 97         0.48200
      90 -> 98        -0.11605
      90 -> 99         0.14791

 Excited State   5:      Singlet-A      3.9125 eV  316.90 nm  f=0.0024  <S**2>=0.000
      90 -> 92         0.70072

 Excited State   6:      Singlet-A      4.1043 eV  302.08 nm  f=0.0006  <S**2>=0.000
      89 -> 91         0.70143

 The electronic state is 1-A.
 Alpha  occ. eigenvalues --  -19.22690 -19.16585 -14.35088 -14.34783 -10.34166
 Alpha  occ. eigenvalues --  -10.28656 -10.27076 -10.24376 -10.24010 -10.23599
 Alpha  occ. eigenvalues --  -10.23430 -10.23282 -10.23132 -10.21837 -10.21782
 Alpha  occ. eigenvalues --  -10.21501 -10.21300 -10.20508 -10.19357 -10.19097
 Alpha  occ. eigenvalues --  -10.19068 -10.19054 -10.18844 -10.18802 -10.18686
 Alpha  occ. eigenvalues --   -1.13522  -1.05539  -0.95493  -0.91904  -0.86636
 Alpha  occ. eigenvalues --   -0.84648  -0.84415  -0.82551  -0.80189  -0.74957
 Alpha  occ. eigenvalues --   -0.74503  -0.73983  -0.73377  -0.70124  -0.69445
 Alpha  occ. eigenvalues --   -0.67707  -0.65754  -0.63845  -0.62514  -0.59986
 Alpha  occ. eigenvalues --   -0.57773  -0.56918  -0.55996  -0.54011  -0.51742
 Alpha  occ. eigenvalues --   -0.50765  -0.50044  -0.49652  -0.49061  -0.47797
 Alpha  occ. eigenvalues --   -0.46744  -0.46335  -0.45652  -0.45117  -0.44506
 Alpha  occ. eigenvalues --   -0.44279  -0.43391  -0.43143  -0.42706  -0.42376
 Alpha  occ. eigenvalues --   -0.41873  -0.40998  -0.40831  -0.40140  -0.39677
 Alpha  occ. eigenvalues --   -0.39088  -0.38350  -0.38103  -0.37587  -0.37462
 Alpha  occ. eigenvalues --   -0.37091  -0.36627  -0.36462  -0.35823  -0.35159
 Alpha  occ. eigenvalues --   -0.34409  -0.34118  -0.33306  -0.32338  -0.30327
 Alpha  occ. eigenvalues --   -0.29459  -0.27497  -0.25751  -0.24828  -0.20298
 Alpha virt. eigenvalues --   -0.07896  -0.03802  -0.02143  -0.01195  -0.00672
 Alpha virt. eigenvalues --   -0.00457  -0.00222  -0.00023   0.00461   0.01429
 Alpha virt. eigenvalues --    0.01922   0.02075   0.02438   0.02715   0.03065

 Mulliken charges:
               1
     1  C   -0.137853
     2  C    0.842720
     3  C   -0.359628
     4  N   -0.404510
     5  C   -0.438285
     6  C   -0.238710
     7  C    0.518446
     8  C   -0.659162
     9  C   -0.325384
    10  C   -0.480031
    11  N    0.378686
    12  C   -0.032132
    13  C   -0.700958
    14  C   -0.092772
    15  C   -0.231660
    16  C    0.022109
    17  C   -0.436742
    18  C    0.184017
    19  C    0.400188
    20  C   -0.477001
    21  C   -0.419938
    22  C   -0.209574
    23  C    0.423042
    24  O   -0.446315
    25  O   -0.176554
    26  H    0.154285
    27  H    0.164290
    28  H    0.126881
    29  H    0.147309
    30  H    0.149797
    31  H    0.148557
    32  H    0.151764
    33  H    0.146683
    34  H    0.115185
    35  H    0.131771
    36  H    0.131786
    37  H    0.155994
    38  H    0.145333
    39  H    0.124904
    40  H    0.119958
    41  H    0.116954
    42  H    0.147284
    43  H    0.138400
    44  H    0.151022
    45  H    0.139794
    46  H    0.151080
    47  H    0.149656
    48  H    0.195418
    49  H    0.193896
 Sum of Mulliken charges =  -0.00000

 Dipole moment (field-independent basis, Debye):
    X=             -1.5948    Y=             -7.0741    Z=              2.2043  Tot=              7.5793
 Quadrupole moment (field-independent basis, Debye-Ang):
   XX=           -167.1832   YY=           -158.0862   ZZ=           -145.9669
   XY=            -13.9760   XZ=              9.9672   YZ=              1.5797

 Normal termination of Gaussian 16 at Thu Jul 31 17:09:09 2025.
