 Gaussian 16, Revision C.02,
 Gaussian 16:  ES64L-G16RevC.02  7-Dec-2021

 ----------------------------------------------------------
 # td=(50-50,nstates=3) b3lyp/6-31+g(d,p) geom=connectivity
 ----------------------------------------------------------

 -------------------
 Title Card Required
 -------------------
 Symbolic Z-matrix:
 Charge =  0 Multiplicity = 1

                         Standard orientation:
 ---------------------------------------------------------------------
 Center     Atomic      Atomic             Coordinates (Angstroms)
 Number     Number       Type             X           Y           Z
 ---------------------------------------------------------------------
      1          6           0       -2.422514    1.940987    1.690036
      2          6           0       -2.437581    1.400905    0.456576
      3          6           0       -2.862203    2.194897   -0.668934
      4          7           0       -3.208925    2.841636   -1.570644
      5          6           0       -2.039029    0.012613    0.170998
      6          6           0       -0.995834   -0.731885    0.583154
      7          6           0        0.143684   -0.320649    1.482096
      8          6           0        0.179214   -1.103382    2.803240
      9          7           0        1.437616   -0.477892    0.795946
     10          6           0        1.977990    0.523945    0.060086
     11          8           0        1.484315    1.621790   -0.126728
     12          6           0        3.357038    0.193282   -0.575677
     13          9           0        3.781126   -1.066662   -0.265613
     14          9           0        3.288822    0.276955   -1.913570
     15          9           0        4.292563    1.051946   -0.140404
     16          6           0       -1.114096   -2.076912   -0.086356
     17          6           0       -2.378522   -1.934627   -0.924526
     18          8           0       -2.920296   -2.726894   -1.642033
     19          8           0       -2.878424   -0.657011   -0.720785
     20          1           0       -2.163706    1.346393    2.558638
     21          1           0       -2.683767    2.981219    1.847401
     22          1           0        0.048737    0.747807    1.691518
     23          1           0        0.991088   -0.741181    3.440824
     24          1           0       -0.765424   -0.983037    3.340564
     25          1           0        0.327111   -2.175905    2.631787
     26          1           0        1.954419   -1.341177    0.897797
     27          1           0       -0.269075   -2.318714   -0.742299
     28          1           0       -1.236468   -2.919904    0.605132
 ---------------------------------------------------------------------

 SCF Done:  E(RB3LYP) =  -1059.31379772     A.U. after   16 cycles

 Excitation energies and oscillator strengths:

 Excited State   1:      Triplet-A      2.7690 eV  447.75 nm  f=0.0000  <S**2>=2.000
      66 -> 71        -0.18084
      67 -> 71        -0.12873
      68 -> 71         0.14755
      70 -> 71         0.61899
 This state for optimization and/or second-order correction.
 Total Energy, E(TD-HF/TD-DFT) =  -1059.21203721
 Copying the excited state density for this state as the 1-particle RhoCI density.

 Excited State   2:      Triplet-A      3.6638 eV  338.40 nm  f=0.0000  <S**2>=2.000
      66 -> 71         0.38407
      67 -> 71         0.21071
      68 -> 71        -0.24567
      69 -> 71        -0.22030
      70 -> 71         0.18963
      70 -> 72         0.25361
      70 -> 73         0.18503
      70 -> 76        -0.15214

 Excited State   3:      Singlet-A      4.2852 eV  289.33 nm  f=0.0851  <S**2>=0.000
      70 -> 71         0.68382

 Excited State   4:      Triplet-A      4.7165 eV  262.87 nm  f=0.0000  <S**2>=2.000
      66 -> 72         0.20042
      66 -> 73        -0.12874
      67 -> 72        -0.26071
      67 -> 73         0.31577
      68 -> 72        -0.15665
      68 -> 73         0.15742
      69 -> 71         0.21395
      69 -> 72         0.30190
      69 -> 73        -0.17441
      70 -> 73         0.16209

 Excited State   5:      Singlet-A      4.9876 eV  248.58 nm  f=0.0049  <S**2>=0.000
      67 -> 71         0.13321
      69 -> 71         0.64597
      69 -> 72         0.11859
      69 -> 73         0.12273

 Excited State   6:      Singlet-A      5.1568 eV  240.43 nm  f=0.0031  <S**2>=0.000
      66 -> 71         0.12313
      67 -> 71         0.24312
      68 -> 71         0.60405
      68 -> 72         0.15063
      69 -> 73         0.10173

 The electronic state is 1-A.
 Alpha  occ. eigenvalues --  -24.78097 -24.77481 -24.77455 -19.24103 -19.17926
 Alpha  occ. eigenvalues --  -19.17506 -14.42079 -14.36146 -10.47759 -10.35570
 Alpha  occ. eigenvalues --  -10.34861 -10.30371 -10.28914 -10.28340 -10.25372
 Alpha  occ. eigenvalues --  -10.25229 -10.25079 -10.24726 -10.23311  -1.34931
 Alpha  occ. eigenvalues --   -1.26335  -1.26211  -1.14989  -1.09329  -1.07062
 Alpha  occ. eigenvalues --   -0.98497  -0.92865  -0.87732  -0.85349  -0.81248
 Alpha  occ. eigenvalues --   -0.76543  -0.75998  -0.70639  -0.68520  -0.65693
 Alpha  occ. eigenvalues --   -0.63667  -0.63370  -0.62609  -0.62101  -0.59500
 Alpha  occ. eigenvalues --   -0.57595  -0.53232  -0.52694  -0.51057  -0.50520
 Alpha  occ. eigenvalues --   -0.50184  -0.49935  -0.48903  -0.47993  -0.47504
 Alpha  occ. eigenvalues --   -0.46725  -0.46068  -0.45597  -0.44630  -0.44461
 Alpha  occ. eigenvalues --   -0.44149  -0.43793  -0.43021  -0.42839  -0.41319
 Alpha  occ. eigenvalues --   -0.40594  -0.40019  -0.38254  -0.37924  -0.35354
 Alpha  occ. eigenvalues --   -0.31905  -0.31592  -0.31016  -0.30696  -0.27325
 Alpha virt. eigenvalues --   -0.09555  -0.04830  -0.04439  -0.03134  -0.01453
 Alpha virt. eigenvalues --   -0.01139  -0.00004   0.00516   0.01542   0.01787
 Alpha virt. eigenvalues --    0.02450   0.02685   0.03312   0.03770   0.03972

 Mulliken charges:
               1
     1  C   -0.362428
     2  C    0.098499
     3  C   -0.105764
     4  N   -0.471451
     5  C   -0.314896
     6  C    1.155906
     7  C   -0.252411
     8  C   -0.443505
     9  N   -0.185869
    10  C    0.109386
    11  O   -0.408800
    12  C    1.157319
    13  F   -0.350901
    14  F   -0.273533
    15  F   -0.277989
    16  C   -0.793522
    17  C    0.731451
    18  O   -0.453918
    19  O   -0.257736
    20  H    0.152442
    21  H    0.174813
    22  H    0.165951
    23  H    0.171142
    24  H    0.162439
    25  H    0.155093
    26  H    0.317606
    27  H    0.202312
    28  H    0.198366
 Sum of Mulliken charges =  -0.00000

 Dipole moment (field-independent basis, Debye):
    X=              2.4123    Y=             -3.4111    Z=              8.0030  Tot=              9.0279
 Quadrupole moment (field-independent basis, Debye-Ang):
   XX=           -130.0331   YY=           -118.3107   ZZ=           -107.5180
   XY=             -6.7643   XZ=            -14.3814   YZ=              2.6725

 Normal termination of Gaussian 16 at Thu Jul 31 16:50:10 2025.
