 Gaussian 16, Revision C.02,
 Gaussian 16:  ES64L-G16RevC.02  7-Dec-2021

 ----------------------------------------------------------
 # td=(50-50,nstates=3) b3lyp/6-31+g(d,p) geom=connectivity
 ----------------------------------------------------------

 -------------------
 Title Card Required
 -------------------
 Symbolic Z-matrix:
 Charge =  0 Multiplicity = 1

                         Standard orientation:
 ---------------------------------------------------------------------
 Center     Atomic      Atomic             Coordinates (Angstroms)
 Number     Number       Type             X           Y           Z
 ---------------------------------------------------------------------
      1          6           0        6.246623   -2.980659   -0.372163
      2         14           0        5.184816   -1.532473    0.210251
      3          6           0        5.321439   -1.291244    2.077388
      4          6           0        5.643856    0.059096   -0.694341
      5          6           0        3.389776   -1.972086   -0.210207
      6          6           0        2.779439   -3.067746   -0.783015
      7          6           0        1.382296   -2.817750   -0.805440
      8          6           0        1.191438   -1.565868   -0.251194
      9          6           0       -0.000007   -0.781985   -0.000017
     10          6           0        0.000015    0.627453   -0.000014
     11          6           0        1.052901    1.390724   -0.622925
     12          6           0        1.047452    2.754832   -0.637244
     13          6           0        0.000070    3.507731   -0.000010
     14          6           0        0.000102    4.911416   -0.000005
     15          6           0       -1.043460    5.655187    0.619133
     16          7           0       -1.908793    6.246753    1.132413
     17          6           0        1.043697    5.655148   -0.619135
     18          7           0        1.909053    6.246690   -1.132404
     19          6           0       -1.047338    2.754870    0.637223
     20          6           0       -1.052839    1.390762    0.622900
     21          6           0       -1.191466   -1.565835    0.251182
     22          6           0       -1.382403   -2.817691    0.805461
     23          6           0       -2.779560   -3.067596    0.783052
     24          6           0       -3.389830   -1.971903    0.210230
     25         14           0       -5.184876   -1.532343   -0.210242
     26          6           0       -6.246608   -2.980719    0.371841
     27          6           0       -5.644064    0.059040    0.694633
     28          6           0       -5.321512   -1.290823   -2.077342
     29          8           0       -2.415043   -1.054438   -0.109288
     30          8           0        2.415039   -1.054539    0.109270
     31          1           0        6.157349   -3.140192   -1.452434
     32          1           0        7.303040   -2.785729   -0.154539
     33          1           0        5.973342   -3.913276    0.133831
     34          1           0        4.652004   -0.495453    2.421534
     35          1           0        6.343985   -1.012108    2.357409
     36          1           0        5.061876   -2.207111    2.619390
     37          1           0        5.554900   -0.055858   -1.780092
     38          1           0        4.997898    0.889171   -0.388370
     39          1           0        6.678368    0.345172   -0.471030
     40          1           0        3.283786   -3.951398   -1.148667
     41          1           0        0.607944   -3.452931   -1.209258
     42          1           0        1.852548    0.866699   -1.130191
     43          1           0        1.839643    3.291907   -1.148635
     44          1           0       -1.839514    3.291972    1.148608
     45          1           0       -1.852511    0.866768    1.130160
     46          1           0       -0.608087   -3.452927    1.209263
     47          1           0       -3.283967   -3.951199    1.148742
     48          1           0       -7.303016   -2.785751    0.154196
     49          1           0       -5.973283   -3.913202   -0.134374
     50          1           0       -6.157403   -3.140512    1.452078
     51          1           0       -6.678576    0.345136    0.471353
     52          1           0       -4.998121    0.889195    0.388842
     53          1           0       -5.555125   -0.056129    1.780361
     54          1           0       -4.652378   -0.494716   -2.421341
     55          1           0       -5.061600   -2.206490   -2.619513
     56          1           0       -6.344163   -1.012025   -2.357316
 ---------------------------------------------------------------------

 SCF Done:  E(RB3LYP) =  -1769.23057096     A.U. after   17 cycles

 Excitation energies and oscillator strengths:

 Excited State   1:      Triplet-A      0.6487 eV 1911.27 nm  f=0.0000  <S**2>=2.000
     114 ->115         0.75740
     114 <-115         0.29226
 This state for optimization and/or second-order correction.
 Total Energy, E(TD-HF/TD-DFT) =  -1769.20673166
 Copying the excited state density for this state as the 1-particle RhoCI density.

 Excited State   2:      Singlet-A      2.3579 eV  525.83 nm  f=0.9234  <S**2>=0.000
     114 ->115         0.71902
     114 <-115        -0.16629

 Excited State   3:      Triplet-A      2.4160 eV  513.18 nm  f=0.0000  <S**2>=2.000
     113 ->115         0.67510
     113 ->117        -0.10441
     114 ->116        -0.13515

 Excited State   4:      Triplet-A      2.7302 eV  454.12 nm  f=0.0000  <S**2>=2.000
     112 ->115         0.64686
     113 ->116         0.12296
     114 ->117         0.22281

 Excited State   5:      Singlet-A      3.0931 eV  400.85 nm  f=0.3183  <S**2>=0.000
     113 ->115         0.69491
     114 ->116         0.11575

 Excited State   6:      Singlet-A      3.4567 eV  358.67 nm  f=0.0093  <S**2>=0.000
     111 ->115         0.70335

 The electronic state is 1-A.
 Alpha  occ. eigenvalues --  -66.15129 -66.15128 -19.24580 -19.24580 -14.33724
 Alpha  occ. eigenvalues --  -14.33724 -10.28010 -10.28010 -10.26064 -10.25532
 Alpha  occ. eigenvalues --  -10.25531 -10.25251 -10.24513 -10.23516 -10.23247
 Alpha  occ. eigenvalues --  -10.23246 -10.22603 -10.22602 -10.22113 -10.22112
 Alpha  occ. eigenvalues --  -10.21960 -10.21960 -10.21427 -10.21427 -10.18611
 Alpha  occ. eigenvalues --  -10.18611 -10.18163 -10.18163 -10.18154 -10.18154
 Alpha  occ. eigenvalues --   -5.29509  -5.29509  -3.65487  -3.65487  -3.65349
 Alpha  occ. eigenvalues --   -3.65349  -3.65325  -3.65325  -1.13656  -1.13546
 Alpha  occ. eigenvalues --   -0.91468  -0.89867  -0.89214  -0.86003  -0.83292
 Alpha  occ. eigenvalues --   -0.82801  -0.80864  -0.77993  -0.76991  -0.75155
 Alpha  occ. eigenvalues --   -0.73255  -0.73017  -0.69964  -0.69961  -0.69600
 Alpha  occ. eigenvalues --   -0.69600  -0.69064  -0.64364  -0.63697  -0.62477
 Alpha  occ. eigenvalues --   -0.62440  -0.58767  -0.58106  -0.57472  -0.55315
 Alpha  occ. eigenvalues --   -0.55196  -0.53284  -0.50595  -0.49348  -0.48199
 Alpha  occ. eigenvalues --   -0.48012  -0.46411  -0.45904  -0.45465  -0.44778
 Alpha  occ. eigenvalues --   -0.44575  -0.43805  -0.43670  -0.43171  -0.43030
 Alpha  occ. eigenvalues --   -0.42761  -0.42746  -0.42391  -0.42333  -0.41669
 Alpha  occ. eigenvalues --   -0.41501  -0.40930  -0.40915  -0.40775  -0.40742
 Alpha  occ. eigenvalues --   -0.40588  -0.39987  -0.39986  -0.39124  -0.38218
 Alpha  occ. eigenvalues --   -0.36590  -0.36352  -0.35658  -0.34563  -0.34555
 Alpha  occ. eigenvalues --   -0.33897  -0.33694  -0.33313  -0.32602  -0.32589
 Alpha  occ. eigenvalues --   -0.32507  -0.32496  -0.32199  -0.31481  -0.30846
 Alpha  occ. eigenvalues --   -0.28356  -0.27635  -0.25773  -0.20745
 Alpha virt. eigenvalues --   -0.12972  -0.04265  -0.03859  -0.02478  -0.02353
 Alpha virt. eigenvalues --   -0.01992  -0.00397  -0.00136  -0.00124   0.00271
 Alpha virt. eigenvalues --    0.00433   0.00638   0.00707   0.01204   0.01558

 Mulliken charges:
               1
     1  C   -0.694614
     2  Si   1.300090
     3  C   -0.652643
     4  C   -0.674774
     5  C   -0.430141
     6  C   -0.034859
     7  C   -0.538623
     8  C    0.017690
     9  C    0.591045
    10  C    0.199995
    11  C   -0.711593
    12  C   -0.146917
    13  C    1.042990
    14  C    1.361896
    15  C   -0.410748
    16  N   -0.511260
    17  C   -0.410724
    18  N   -0.511262
    19  C   -0.146733
    20  C   -0.711373
    21  C    0.017687
    22  C   -0.538529
    23  C   -0.034810
    24  C   -0.430189
    25  Si   1.300071
    26  C   -0.694623
    27  C   -0.674746
    28  C   -0.652649
    29  O   -0.213612
    30  O   -0.213623
    31  H    0.169365
    32  H    0.169040
    33  H    0.168123
    34  H    0.176002
    35  H    0.165933
    36  H    0.163857
    37  H    0.165985
    38  H    0.174321
    39  H    0.167357
    40  H    0.142199
    41  H    0.153757
    42  H    0.136050
    43  H    0.151801
    44  H    0.151801
    45  H    0.136050
    46  H    0.153757
    47  H    0.142200
    48  H    0.169037
    49  H    0.168128
    50  H    0.169363
    51  H    0.167358
    52  H    0.174316
    53  H    0.165985
    54  H    0.176001
    55  H    0.163861
    56  H    0.165932
 Sum of Mulliken charges =  -0.00000

 Dipole moment (field-independent basis, Debye):
    X=             -0.0003    Y=            -13.9646    Z=             -0.0001  Tot=             13.9646
 Quadrupole moment (field-independent basis, Debye-Ang):
   XX=           -164.1057   YY=           -255.3665   ZZ=           -197.7921
   XY=             -0.0015   XZ=              4.2240   YZ=             -0.0002

 Normal termination of Gaussian 16 at Thu Jul 31 17:00:33 2025.
