 Gaussian 16, Revision C.02,
 Gaussian 16:  ES64L-G16RevC.02  7-Dec-2021

 ----------------------------------------------------------
 # td=(50-50,nstates=3) b3lyp/6-31+g(d,p) geom=connectivity
 ----------------------------------------------------------

 -------------------
 Title Card Required
 -------------------
 Symbolic Z-matrix:
 Charge =  0 Multiplicity = 1

                         Standard orientation:
 ---------------------------------------------------------------------
 Center     Atomic      Atomic             Coordinates (Angstroms)
 Number     Number       Type             X           Y           Z
 ---------------------------------------------------------------------
      1          6           0       -3.313747   -1.847204   -1.162042
      2          6           0       -2.790564   -1.048619   -0.215744
      3          6           0       -3.623195   -0.601679    0.870577
      4          7           0       -4.279024   -0.234680    1.759539
      5          6           0       -1.347528   -0.650527   -0.173639
      6          6           0       -0.896749    0.630155   -0.178251
      7          6           0       -1.832427    1.819375   -0.314225
      8          6           0       -1.858545    2.714764    0.944434
      9          6           0       -1.561077    2.638655   -1.597506
     10          6           0        0.597607    0.905100   -0.058878
     11          8           0        0.940784    2.085482   -0.034558
     12          6           0        1.606697   -0.187328    0.029035
     13          6           0        3.097442    0.202840    0.148257
     14          6           0        3.520619    1.027916   -1.096014
     15          6           0        3.312908    1.038143    1.438466
     16          6           0        4.051200   -1.011006    0.231627
     17          6           0        1.102465   -1.452390   -0.005485
     18          8           0        1.826108   -2.582844    0.049358
     19          6           0       -0.366390   -1.750312   -0.113731
     20          8           0       -0.686145   -2.940050   -0.152658
     21          1           0       -2.702839   -2.224045   -1.974261
     22          1           0       -4.357915   -2.139566   -1.135170
     23          1           0       -2.838074    1.404524   -0.426641
     24          1           0       -2.645582    3.467528    0.829418
     25          1           0       -2.088537    2.132079    1.841774
     26          1           0       -0.905047    3.225930    1.086604
     27          1           0       -2.363887    3.372480   -1.725499
     28          1           0       -1.551677    1.997763   -2.486144
     29          1           0       -0.610108    3.170054   -1.539240
     30          1           0        4.584733    1.277141   -1.016261
     31          1           0        3.385120    0.442954   -2.013011
     32          1           0        2.958158    1.957527   -1.184873
     33          1           0        4.376298    1.285940    1.531480
     34          1           0        3.028060    0.460927    2.325486
     35          1           0        2.745012    1.968506    1.426905
     36          1           0        3.999239   -1.643779   -0.657077
     37          1           0        5.074321   -0.629042    0.314932
     38          1           0        3.853394   -1.637131    1.104365
     39          1           0        1.174225   -3.315021    0.002014
 ---------------------------------------------------------------------

 SCF Done:  E(RB3LYP) =  -901.569830803     A.U. after   17 cycles

 Excitation energies and oscillator strengths:

 Excited State   1:      Triplet-A      1.7566 eV  705.81 nm  f=0.0000  <S**2>=2.000
      73 -> 74         0.69345
 This state for optimization and/or second-order correction.
 Total Energy, E(TD-HF/TD-DFT) =  -901.505276250
 Copying the excited state density for this state as the 1-particle RhoCI density.

 Excited State   2:      Triplet-A      1.9687 eV  629.78 nm  f=0.0000  <S**2>=2.000
      72 -> 74         0.69107

 Excited State   3:      Triplet-A      2.3724 eV  522.60 nm  f=0.0000  <S**2>=2.000
      69 -> 74         0.35897
      71 -> 74         0.56677

 Excited State   4:      Singlet-A      2.3825 eV  520.39 nm  f=0.0000  <S**2>=0.000
      72 -> 74         0.69707

 Excited State   5:      Singlet-A      2.5388 eV  488.37 nm  f=0.0055  <S**2>=0.000
      73 -> 74         0.69434

 Excited State   6:      Singlet-A      3.2851 eV  377.42 nm  f=0.0007  <S**2>=0.000
      68 -> 74        -0.11575
      70 -> 74         0.67127
      71 -> 74         0.15005

 The electronic state is 1-A.
 Alpha  occ. eigenvalues --  -19.21399 -19.19800 -19.17266 -14.36041 -10.32561
 Alpha  occ. eigenvalues --  -10.31044 -10.29656 -10.27126 -10.25741 -10.25563
 Alpha  occ. eigenvalues --  -10.25217 -10.24292 -10.23238 -10.22295 -10.22161
 Alpha  occ. eigenvalues --  -10.19073 -10.18546 -10.17839 -10.17759 -10.17612
 Alpha  occ. eigenvalues --   -1.11902  -1.07535  -1.07199  -0.92968  -0.89029
 Alpha  occ. eigenvalues --   -0.85037  -0.83047  -0.80643  -0.76682  -0.71198
 Alpha  occ. eigenvalues --   -0.69658  -0.68966  -0.68770  -0.67988  -0.65092
 Alpha  occ. eigenvalues --   -0.63556  -0.59804  -0.56755  -0.56218  -0.54173
 Alpha  occ. eigenvalues --   -0.53374  -0.49796  -0.49209  -0.47980  -0.46906
 Alpha  occ. eigenvalues --   -0.46258  -0.45578  -0.44720  -0.44231  -0.43878
 Alpha  occ. eigenvalues --   -0.42996  -0.42497  -0.42176  -0.41157  -0.40505
 Alpha  occ. eigenvalues --   -0.39510  -0.39434  -0.38303  -0.38137  -0.37826
 Alpha  occ. eigenvalues --   -0.36803  -0.36615  -0.35878  -0.35684  -0.35473
 Alpha  occ. eigenvalues --   -0.35074  -0.34087  -0.33320  -0.31986  -0.31079
 Alpha  occ. eigenvalues --   -0.29356  -0.27589  -0.26374
 Alpha virt. eigenvalues --   -0.14301  -0.07964  -0.03006  -0.01476  -0.01161
 Alpha virt. eigenvalues --    0.00373   0.00895   0.01446   0.01596   0.01840
 Alpha virt. eigenvalues --    0.02462   0.03182   0.03388   0.03873   0.04409

 Mulliken charges:
               1
     1  C   -0.326018
     2  C    0.501899
     3  C   -0.283056
     4  N   -0.458587
     5  C    0.427988
     6  C    0.485954
     7  C    0.144589
     8  C   -0.555908
     9  C   -0.632059
    10  C   -0.478286
    11  O   -0.406122
    12  C    0.696367
    13  C    0.365416
    14  C   -0.502876
    15  C   -0.509682
    16  C   -0.402776
    17  C   -0.094005
    18  O   -0.512074
    19  C   -0.166727
    20  O   -0.499633
    21  H    0.158502
    22  H    0.165350
    23  H    0.126840
    24  H    0.148264
    25  H    0.158998
    26  H    0.180052
    27  H    0.149375
    28  H    0.138784
    29  H    0.185370
    30  H    0.145330
    31  H    0.142519
    32  H    0.175745
    33  H    0.144946
    34  H    0.144972
    35  H    0.176441
    36  H    0.159892
    37  H    0.138600
    38  H    0.160933
    39  H    0.404681
 Sum of Mulliken charges =  -0.00000

 Dipole moment (field-independent basis, Debye):
    X=              0.8132    Y=             -0.7080    Z=             -3.1206  Tot=              3.3017
 Quadrupole moment (field-independent basis, Debye-Ang):
   XX=           -129.7803   YY=           -123.7347   ZZ=           -123.3572
   XY=              0.4545   XZ=             13.9906   YZ=              2.3149

 Normal termination of Gaussian 16 at Thu Jul 31 17:09:30 2025.
