 Gaussian 16, Revision C.02,
 Gaussian 16:  ES64L-G16RevC.02  7-Dec-2021

 ----------------------------------------------------------
 # td=(50-50,nstates=3) b3lyp/6-31+g(d,p) geom=connectivity
 ----------------------------------------------------------

 -------------------
 Title Card Required
 -------------------
 Symbolic Z-matrix:
 Charge =  0 Multiplicity = 1

                         Standard orientation:
 ---------------------------------------------------------------------
 Center     Atomic      Atomic             Coordinates (Angstroms)
 Number     Number       Type             X           Y           Z
 ---------------------------------------------------------------------
      1          6           0       -1.718761    1.569839   -0.000111
      2          6           0       -0.227101    1.250343    0.000531
      3          7           0        0.048731   -0.201791   -0.000048
      4          6           0        1.423433   -0.764487    0.000374
      5          6           0        2.530936    0.286504   -0.000413
      6          6           0       -0.942526   -1.086592   -0.000028
      7          7           0       -1.784689   -1.901771   -0.000395
      8          1           0       -1.845723    2.656770    0.000302
      9          1           0       -2.217946    1.167573   -0.886088
     10          1           0       -2.218894    1.166796    0.884975
     11          1           0        0.240799    1.698869    0.885163
     12          1           0        0.241731    1.699685   -0.883174
     13          1           0        1.530904   -1.405942    0.883725
     14          1           0        1.530847   -1.407122   -0.882110
     15          1           0        3.494472   -0.232093   -0.000021
     16          1           0        2.499807    0.922699   -0.889461
     17          1           0        2.499824    0.924052    0.887663
 ---------------------------------------------------------------------

 SCF Done:  E(RB3LYP) =  -306.050019000     A.U. after   13 cycles

 Excitation energies and oscillator strengths:

 Excited State   1:      Triplet-A      4.9760 eV  249.16 nm  f=0.0000  <S**2>=2.000
      27 -> 28         0.52443
      27 -> 29        -0.16498
      27 -> 30        -0.12419
      27 -> 32        -0.36164
      27 -> 33         0.16016
 This state for optimization and/or second-order correction.
 Total Energy, E(TD-HF/TD-DFT) =  -305.867153836
 Copying the excited state density for this state as the 1-particle RhoCI density.

 Excited State   2:      Singlet-A      5.2052 eV  238.19 nm  f=0.0073  <S**2>=0.000
      27 -> 28         0.64942
      27 -> 29        -0.10043
      27 -> 32        -0.23534

 Excited State   3:      Triplet-A      5.4584 eV  227.14 nm  f=0.0000  <S**2>=2.000
      27 -> 28         0.41735
      27 -> 29         0.24063
      27 -> 30         0.39642
      27 -> 32         0.21930
      27 -> 33        -0.21182

 Excited State   4:      Singlet-A      5.6415 eV  219.77 nm  f=0.0086  <S**2>=0.000
      27 -> 28         0.20903
      27 -> 29         0.33561
      27 -> 30         0.45385
      27 -> 32         0.28308
      27 -> 33        -0.21640

 Excited State   5:      Triplet-A      5.6864 eV  218.03 nm  f=0.0000  <S**2>=2.000
      26 -> 28         0.14381
      26 -> 30        -0.11040
      26 -> 32        -0.29485
      26 -> 33         0.17038
      27 -> 31         0.38938
      27 -> 37        -0.17604
      27 -> 40        -0.28826
      27 -> 41         0.15667
      27 -> 45         0.10307

 Excited State   6:      Singlet-A      5.9760 eV  207.47 nm  f=0.0009  <S**2>=0.000
      27 -> 29         0.57127
      27 -> 30        -0.39931

 The electronic state is 1-A.
 Alpha  occ. eigenvalues --  -14.39109 -14.31869 -10.24847 -10.24809 -10.24424
 Alpha  occ. eigenvalues --  -10.20779 -10.19809  -0.97851  -0.87840  -0.79579
 Alpha  occ. eigenvalues --   -0.76575  -0.66649  -0.64793  -0.53645  -0.50779
 Alpha  occ. eigenvalues --   -0.50677  -0.46549  -0.41864  -0.41012  -0.40353
 Alpha  occ. eigenvalues --   -0.39217  -0.38356  -0.37797  -0.35021  -0.35018
 Alpha  occ. eigenvalues --   -0.31972  -0.23530
 Alpha virt. eigenvalues --   -0.01019   0.00911   0.01350   0.02239   0.03316
 Alpha virt. eigenvalues --    0.03925   0.04594   0.05732   0.05740   0.06870
 Alpha virt. eigenvalues --    0.07248   0.07932   0.08774   0.09609   0.09612

 Mulliken charges:
               1
     1  C   -0.716097
     2  C    0.073957
     3  N   -0.378346
     4  C   -0.048841
     5  C   -0.523376
     6  C    0.484634
     7  N   -0.478258
     8  H    0.151669
     9  H    0.176263
    10  H    0.176262
    11  H    0.145627
    12  H    0.145630
    13  H    0.159207
    14  H    0.159239
    15  H    0.159078
    16  H    0.156690
    17  H    0.156664
 Sum of Mulliken charges =  -0.00000

 Dipole moment (field-independent basis, Debye):
    X=              3.9036    Y=              3.8304    Z=              0.0013  Tot=              5.4690
 Quadrupole moment (field-independent basis, Debye-Ang):
   XX=            -47.2214   YY=            -49.5088   ZZ=            -44.2063
   XY=             -9.0621   XZ=             -0.0019   YZ=             -0.0012

 Normal termination of Gaussian 16 at Thu Jul 31 17:10:24 2025.
