 Gaussian 16, Revision C.02,
 Gaussian 16:  ES64L-G16RevC.02  7-Dec-2021

 ----------------------------------------------------------
 # td=(50-50,nstates=3) b3lyp/6-31+g(d,p) geom=connectivity
 ----------------------------------------------------------

 -------------------
 Title Card Required
 -------------------
 Symbolic Z-matrix:
 Charge =  0 Multiplicity = 1

                         Standard orientation:
 ---------------------------------------------------------------------
 Center     Atomic      Atomic             Coordinates (Angstroms)
 Number     Number       Type             X           Y           Z
 ---------------------------------------------------------------------
      1          6           0        2.437258    2.375010   -2.114397
      2          7           0        2.016628    1.264818   -1.265345
      3          6           0        1.029014    0.336201   -1.795793
      4          6           0       -0.190020    0.163144   -0.901019
      5          6           0       -0.786195   -1.038419   -0.619328
      6          7           0       -0.187872   -2.265008   -1.204094
      7          8           0       -0.516664   -2.547456   -2.350881
      8          8           0        0.601462   -2.888357   -0.501448
      9          6           0       -1.959405   -1.212457    0.204755
     10         17           0       -2.584374   -2.813963    0.467154
     11          6           0       -2.581434   -0.130951    0.767822
     12          6           0       -2.008590    1.128196    0.479535
     13          6           0       -0.850557    1.306197   -0.330051
     14          7           0       -0.550534    2.588859   -0.473525
     15          8           0       -1.494979    3.276725    0.236711
     16          7           0       -2.424932    2.351306    0.847052
     17          8           0       -3.347187    2.780060    1.526334
     18          7           0        2.941326    0.879457   -0.359834
     19          6           0        2.857430   -0.228138    0.285290
     20          6           0        3.928423   -0.539008    1.307385
     21          6           0        3.374478   -0.673743    2.663004
     22          7           0        2.915206   -0.783570    3.724168
     23          1           0        3.093742    3.015097   -1.525517
     24          1           0        2.981639    2.033767   -3.008026
     25          1           0        1.561265    2.953574   -2.417339
     26          1           0        1.490701   -0.638353   -2.007830
     27          1           0        0.684832    0.739008   -2.754019
     28          1           0       -3.463548   -0.225594    1.389011
     29          1           0        2.058216   -0.960407    0.172248
     30          1           0        4.442095   -1.477677    1.060511
     31          1           0        4.673191    0.262958    1.301455
 ---------------------------------------------------------------------

 SCF Done:  E(RB3LYP) =  -1513.90237603     A.U. after   18 cycles

 Excitation energies and oscillator strengths:

 Excited State   1:      Triplet-A      1.2160 eV 1019.60 nm  f=0.0000  <S**2>=2.000
      82 -> 84         0.69462
      82 -> 85         0.10496
      83 -> 84        -0.15827
      82 <- 84         0.22700
 This state for optimization and/or second-order correction.
 Total Energy, E(TD-HF/TD-DFT) =  -1513.85768867
 Copying the excited state density for this state as the 1-particle RhoCI density.

 Excited State   2:      Triplet-A      2.1608 eV  573.78 nm  f=0.0000  <S**2>=2.000
      82 -> 84         0.15562
      83 -> 84         0.68661

 Excited State   3:      Singlet-A      2.1821 eV  568.19 nm  f=0.0008  <S**2>=0.000
      83 -> 84         0.70366

 Excited State   4:      Triplet-A      2.5121 eV  493.54 nm  f=0.0000  <S**2>=2.000
      83 -> 85         0.70521

 Excited State   5:      Singlet-A      2.5216 eV  491.68 nm  f=0.0001  <S**2>=0.000
      83 -> 85         0.70655

 Excited State   6:      Singlet-A      3.0021 eV  412.99 nm  f=0.0089  <S**2>=0.000
      82 -> 84        -0.33012
      82 -> 85         0.61483

 The electronic state is 1-A.
 Alpha  occ. eigenvalues -- -101.60338 -19.31654 -19.24409 -19.24395 -19.22646
 Alpha  occ. eigenvalues --  -14.62596 -14.58398 -14.44788 -14.41342 -14.39915
 Alpha  occ. eigenvalues --  -14.34636 -10.32545 -10.31873 -10.30487 -10.29868
 Alpha  occ. eigenvalues --  -10.28909 -10.28210 -10.27535 -10.25146 -10.24777
 Alpha  occ. eigenvalues --  -10.24055 -10.23584  -9.51781  -7.28244  -7.27195
 Alpha  occ. eigenvalues --   -7.27162  -1.28321  -1.25648  -1.15830  -1.11210
 Alpha  occ. eigenvalues --   -1.04568  -0.97543  -0.93204  -0.92488  -0.91507
 Alpha  occ. eigenvalues --   -0.89237  -0.88020  -0.82962  -0.80892  -0.78866
 Alpha  occ. eigenvalues --   -0.75710  -0.70465  -0.69151  -0.68424  -0.65611
 Alpha  occ. eigenvalues --   -0.61716  -0.60741  -0.59464  -0.57502  -0.57029
 Alpha  occ. eigenvalues --   -0.56349  -0.55873  -0.55547  -0.53795  -0.53102
 Alpha  occ. eigenvalues --   -0.51648  -0.51375  -0.49449  -0.48113  -0.47292
 Alpha  occ. eigenvalues --   -0.46419  -0.46093  -0.45404  -0.44429  -0.44104
 Alpha  occ. eigenvalues --   -0.43744  -0.41407  -0.40229  -0.39345  -0.38300
 Alpha  occ. eigenvalues --   -0.37043  -0.36897  -0.36648  -0.36235  -0.35635
 Alpha  occ. eigenvalues --   -0.34041  -0.33516  -0.33253  -0.33198  -0.32150
 Alpha  occ. eigenvalues --   -0.30189  -0.26268  -0.24345
 Alpha virt. eigenvalues --   -0.13803  -0.12620  -0.05543  -0.05113  -0.03306
 Alpha virt. eigenvalues --   -0.03022  -0.01542  -0.00416   0.00284   0.00400
 Alpha virt. eigenvalues --    0.01357   0.01558   0.02117   0.02201   0.02997

 Mulliken charges:
               1
     1  C   -0.231421
     2  N    0.143911
     3  C   -0.371567
     4  C    0.870535
     5  C    0.042223
     6  N   -0.420159
     7  O    0.061162
     8  O    0.047578
     9  C   -0.366483
    10  Cl   0.338237
    11  C    0.744428
    12  C   -0.761257
    13  C   -0.287533
    14  N   -0.541722
    15  O    0.442292
    16  N   -0.542587
    17  O    0.070957
    18  N   -0.106862
    19  C   -0.045428
    20  C   -0.321847
    21  C    0.169850
    22  N   -0.483233
    23  H    0.168561
    24  H    0.139444
    25  H    0.167770
    26  H    0.161425
    27  H    0.188998
    28  H    0.185515
    29  H    0.138208
    30  H    0.194844
    31  H    0.204160
 Sum of Mulliken charges =  -0.00000

 Dipole moment (field-independent basis, Debye):
    X=              0.0656    Y=              0.2277    Z=             -4.7551  Tot=              4.7610
 Quadrupole moment (field-independent basis, Debye-Ang):
   XX=           -127.1407   YY=           -148.6032   ZZ=           -150.8397
   XY=              7.9258   XZ=            -10.2026   YZ=             -7.2832

 Normal termination of Gaussian 16 at Thu Jul 31 17:13:17 2025.
