 Gaussian 16, Revision C.02,
 Gaussian 16:  ES64L-G16RevC.02  7-Dec-2021

 ----------------------------------------------------------
 # td=(50-50,nstates=3) b3lyp/6-31+g(d,p) geom=connectivity
 ----------------------------------------------------------

 -------------------
 Title Card Required
 -------------------
 Symbolic Z-matrix:
 Charge =  0 Multiplicity = 1

                         Standard orientation:
 ---------------------------------------------------------------------
 Center     Atomic      Atomic             Coordinates (Angstroms)
 Number     Number       Type             X           Y           Z
 ---------------------------------------------------------------------
      1          6           0       -4.624286    1.228968    1.368714
      2          6           0       -4.000467    0.919780    0.216955
      3          6           0       -3.938678    1.890450   -0.847993
      4          7           0       -3.880862    2.676348   -1.703395
      5          6           0       -3.362307   -0.385402   -0.042845
      6          6           0       -2.450038   -1.103684    0.637556
      7          6           0       -1.740311   -0.748728    1.926188
      8          6           0       -1.562737   -1.982840    2.832208
      9          6           0       -0.405589    0.018267    1.696972
     10          6           0        0.667464   -0.687270    0.856061
     11          6           0        2.020740    0.067911    0.852344
     12          6           0        1.904597    1.467693    0.243207
     13          6           0        2.142035    2.602827    1.030135
     14          6           0        2.028826    3.890073    0.495088
     15          6           0        1.671056    4.062250   -0.843104
     16          6           0        1.433255    2.938376   -1.640520
     17          6           0        1.552807    1.656082   -1.102350
     18          6           0        3.154493   -0.737180    0.213924
     19          6           0        4.449190   -0.635086    0.746385
     20          6           0        5.521075   -1.331764    0.185443
     21          6           0        5.318156   -2.152065   -0.927692
     22          6           0        4.035632   -2.266743   -1.467693
     23          6           0        2.965819   -1.567093   -0.901228
     24          6           0       -2.210612   -2.362126   -0.163319
     25          6           0       -3.089137   -2.177089   -1.391581
     26          8           0       -3.242765   -2.890798   -2.345060
     27          8           0       -3.760139   -0.976618   -1.251934
     28          1           0       -4.716822    0.497362    2.163471
     29          1           0       -5.053978    2.211808    1.527576
     30          1           0       -2.380593   -0.045561    2.468813
     31          1           0       -1.103512   -1.690748    3.782131
     32          1           0       -2.526990   -2.451773    3.056275
     33          1           0       -0.921193   -2.743693    2.375867
     34          1           0       -0.639765    0.984754    1.237406
     35          1           0        0.008335    0.242378    2.690404
     36          1           0        0.850109   -1.699847    1.236200
     37          1           0        0.308728   -0.792699   -0.173944
     38          1           0        2.301681    0.211175    1.903816
     39          1           0        2.417830    2.480031    2.075036
     40          1           0        2.218145    4.754482    1.125483
     41          1           0        1.577308    5.059652   -1.262294
     42          1           0        1.153669    3.060169   -2.683002
     43          1           0        1.376335    0.796182   -1.742418
     44          1           0        4.619189    0.001887    1.611277
     45          1           0        6.512614   -1.235485    0.618930
     46          1           0        6.148693   -2.696973   -1.366759
     47          1           0        3.862856   -2.902801   -2.331376
     48          1           0        1.979222   -1.678408   -1.340532
     49          1           0       -1.170562   -2.514545   -0.470130
     50          1           0       -2.517929   -3.276091    0.360349
 ---------------------------------------------------------------------

 SCF Done:  E(RB3LYP) =  -1133.63485274     A.U. after   17 cycles

 Excitation energies and oscillator strengths:

 Excited State   1:      Triplet-A      2.7618 eV  448.93 nm  f=0.0000  <S**2>=2.000
      89 -> 96         0.28351
      92 -> 96         0.13606
      94 -> 96         0.57727
      94 -> 97        -0.11187
 This state for optimization and/or second-order correction.
 Total Energy, E(TD-HF/TD-DFT) =  -1133.53335911
 Copying the excited state density for this state as the 1-particle RhoCI density.

 Excited State   2:      Triplet-A      3.6027 eV  344.15 nm  f=0.0000  <S**2>=2.000
      89 -> 96         0.50023
      90 -> 96         0.19728
      94 -> 96        -0.15701
      94 -> 97         0.32613

 Excited State   3:      Triplet-A      3.6836 eV  336.58 nm  f=0.0000  <S**2>=2.000
      91 ->101         0.23518
      92 -> 99        -0.18425
      92 ->101         0.11043
      92 ->103        -0.15581
      93 -> 99        -0.26945
      93 ->103         0.14547
      95 -> 98         0.43973
      95 ->101         0.10287

 Excited State   4:      Singlet-A      3.9479 eV  314.05 nm  f=0.0175  <S**2>=0.000
      92 -> 96        -0.10306
      94 -> 96        -0.27344
      95 -> 96         0.63509

 Excited State   5:      Singlet-A      3.9747 eV  311.94 nm  f=0.0501  <S**2>=0.000
      94 -> 96         0.62448
      95 -> 96         0.29735

 Excited State   6:      Singlet-A      4.2600 eV  291.04 nm  f=0.0002  <S**2>=0.000
      91 -> 96        -0.14570
      92 -> 96        -0.10829
      93 -> 96         0.67845

 The electronic state is 1-A.
 Alpha  occ. eigenvalues --  -19.22782 -19.16645 -14.35761 -10.34232 -10.28538
 Alpha  occ. eigenvalues --  -10.27517 -10.24864 -10.24553 -10.23509 -10.23217
 Alpha  occ. eigenvalues --  -10.22842 -10.21525 -10.21011 -10.20799 -10.20460
 Alpha  occ. eigenvalues --  -10.20435 -10.20391 -10.20174 -10.20148 -10.20030
 Alpha  occ. eigenvalues --  -10.20000 -10.19978 -10.19932 -10.19881 -10.19868
 Alpha  occ. eigenvalues --  -10.19750 -10.19703  -1.13598  -1.05633  -0.92465
 Alpha  occ. eigenvalues --   -0.87654  -0.86851  -0.85920  -0.84672  -0.81990
 Alpha  occ. eigenvalues --   -0.79582  -0.75530  -0.75259  -0.75101  -0.74938
 Alpha  occ. eigenvalues --   -0.74425  -0.69527  -0.68219  -0.65225  -0.63184
 Alpha  occ. eigenvalues --   -0.61732  -0.60875  -0.60720  -0.60295  -0.57881
 Alpha  occ. eigenvalues --   -0.57256  -0.54613  -0.52491  -0.51905  -0.51266
 Alpha  occ. eigenvalues --   -0.49971  -0.49000  -0.48241  -0.47556  -0.46920
 Alpha  occ. eigenvalues --   -0.46185  -0.46059  -0.45197  -0.45097  -0.44397
 Alpha  occ. eigenvalues --   -0.43444  -0.42991  -0.42723  -0.42521  -0.42457
 Alpha  occ. eigenvalues --   -0.41604  -0.41180  -0.39976  -0.39580  -0.39477
 Alpha  occ. eigenvalues --   -0.37859  -0.37713  -0.37506  -0.37382  -0.36800
 Alpha  occ. eigenvalues --   -0.36516  -0.35809  -0.35313  -0.35041  -0.34888
 Alpha  occ. eigenvalues --   -0.34385  -0.33776  -0.33117  -0.30931  -0.29571
 Alpha  occ. eigenvalues --   -0.26290  -0.26179  -0.25845  -0.25554  -0.24619
 Alpha virt. eigenvalues --   -0.08583  -0.03672  -0.02725  -0.02436  -0.01902
 Alpha virt. eigenvalues --   -0.01579  -0.00924  -0.00735  -0.00145  -0.00069
 Alpha virt. eigenvalues --    0.00582   0.01071   0.01677   0.01972   0.02165

 Mulliken charges:
               1
     1  C   -0.273558
     2  C    0.256229
     3  C   -0.254286
     4  N   -0.445978
     5  C    0.142348
     6  C    0.185460
     7  C    0.290015
     8  C   -0.651241
     9  C   -0.253396
    10  C   -0.479875
    11  C   -0.014551
    12  C    0.056692
    13  C    0.266107
    14  C   -0.419734
    15  C    0.013171
    16  C   -0.763460
    17  C    0.087313
    18  C    0.156889
    19  C   -0.321358
    20  C   -0.038610
    21  C   -0.110417
    22  C    0.127388
    23  C   -0.099394
    24  C   -0.439310
    25  C    0.535329
    26  O   -0.455034
    27  O   -0.243987
    28  H    0.154583
    29  H    0.168172
    30  H    0.124758
    31  H    0.147651
    32  H    0.151424
    33  H    0.153159
    34  H    0.165131
    35  H    0.133587
    36  H    0.146851
    37  H    0.129008
    38  H    0.104133
    39  H    0.101383
    40  H    0.124476
    41  H    0.125614
    42  H    0.127326
    43  H    0.112716
    44  H    0.106789
    45  H    0.125323
    46  H    0.124880
    47  H    0.125623
    48  H    0.097078
    49  H    0.196307
    50  H    0.201275
 Sum of Mulliken charges =  -0.00000

 Dipole moment (field-independent basis, Debye):
    X=              1.8695    Y=             -0.8503    Z=              6.9551  Tot=              7.2520
 Quadrupole moment (field-independent basis, Debye-Ang):
   XX=           -165.6596   YY=           -166.8026   ZZ=           -163.8650
   XY=             -0.9425   XZ=            -24.6929   YZ=              1.1599

 Normal termination of Gaussian 16 at Thu Jul 31 17:33:38 2025.
