 Gaussian 16, Revision C.02,
 Gaussian 16:  ES64L-G16RevC.02  7-Dec-2021

 ----------------------------------------------------------
 # td=(50-50,nstates=3) b3lyp/6-31+g(d,p) geom=connectivity
 ----------------------------------------------------------

 -------------------
 Title Card Required
 -------------------
 Symbolic Z-matrix:
 Charge =  0 Multiplicity = 1

                         Standard orientation:
 ---------------------------------------------------------------------
 Center     Atomic      Atomic             Coordinates (Angstroms)
 Number     Number       Type             X           Y           Z
 ---------------------------------------------------------------------
      1          6           0       -5.565893    2.459572   -0.011639
      2          8           0       -5.148042    1.092488   -0.014663
      3          6           0       -3.835954    0.796281   -0.016898
      4          6           0       -2.829271    1.714786   -0.015016
      5          6           0       -1.427167    1.354350   -0.015147
      6          6           0       -0.451513    2.336674   -0.010104
      7          6           0        1.053465    2.169858    0.011457
      8          6           0       -0.884700    3.699245   -0.017731
      9          7           0       -1.200078    4.822515   -0.024475
     10          6           0       -1.142957   -0.084503   -0.025390
     11          8           0        0.170387   -0.413762   -0.036064
     12          6           0        0.544763   -1.789332   -0.048473
     13          6           0        2.062853   -1.890563   -0.022687
     14          8           0        2.673726   -2.727093   -0.650238
     15          8           0        2.614434   -0.988126    0.806031
     16          6           0        4.066601   -0.956136    0.882517
     17          6           0        4.600064   -0.223667   -0.337520
     18         35           0        6.481391    0.258872   -0.098739
     19          6           0       -2.150156   -1.005824   -0.027980
     20          6           0       -3.539646   -0.635486   -0.017921
     21          6           0       -4.524032   -1.620383   -0.008579
     22          6           0       -5.937397   -1.414444   -0.001111
     23          7           0       -7.101715   -1.368622    0.005618
     24          6           0       -4.137482   -2.997692   -0.003553
     25          7           0       -3.794308   -4.111570    0.001702
     26          1           0       -5.207291    2.977251   -0.908230
     27          1           0       -6.654663    2.426719   -0.010979
     28          1           0       -5.206268    2.973644    0.886635
     29          1           0       -3.068845    2.769504   -0.010944
     30          1           0        1.372246    1.527540    0.834812
     31          1           0        1.405607    1.703297   -0.914516
     32          1           0        1.532282    3.145422    0.109674
     33          1           0        0.142120   -2.307740    0.832637
     34          1           0        0.188017   -2.288269   -0.954274
     35          1           0        4.277969   -0.411359    1.802478
     36          1           0        4.456208   -1.973674    0.947978
     37          1           0        4.547614   -0.835699   -1.235872
     38          1           0        4.067228    0.714908   -0.487077
     39          1           0       -1.921698   -2.062794   -0.042264
 ---------------------------------------------------------------------

 SCF Done:  E(RB3LYP) =  -3693.07177570     A.U. after   17 cycles

 Excitation energies and oscillator strengths:

 Excited State   1:      Triplet-A      0.9175 eV 1351.30 nm  f=0.0000  <S**2>=2.000
     102 ->103         0.74460
     102 <-103         0.26187
 This state for optimization and/or second-order correction.
 Total Energy, E(TD-HF/TD-DFT) =  -3693.03805752
 Copying the excited state density for this state as the 1-particle RhoCI density.

 Excited State   2:      Triplet-A      2.0866 eV  594.20 nm  f=0.0000  <S**2>=2.000
     101 ->103         0.69580

 Excited State   3:      Singlet-A      2.7085 eV  457.75 nm  f=0.0675  <S**2>=0.000
     101 ->103         0.63659
     102 ->103         0.29821

 Excited State   4:      Singlet-A      3.0282 eV  409.43 nm  f=0.8417  <S**2>=0.000
     101 ->103        -0.29622
     102 ->103         0.64919
     102 <-103        -0.14202

 Excited State   5:      Triplet-A      3.3188 eV  373.58 nm  f=0.0000  <S**2>=2.000
      97 ->103         0.58045
     102 ->104         0.29558
     102 ->105         0.22370

 Excited State   6:      Singlet-A      3.8547 eV  321.64 nm  f=0.0000  <S**2>=0.000
     100 ->103         0.70686

 The electronic state is 1-A.
 Alpha  occ. eigenvalues -- -482.94180 -61.90221 -56.41864 -56.41481 -56.41473
 Alpha  occ. eigenvalues --  -19.25039 -19.24836 -19.23016 -19.19333 -14.37273
 Alpha  occ. eigenvalues --  -14.36811 -14.35666 -10.37085 -10.32065 -10.30841
 Alpha  occ. eigenvalues --  -10.30821 -10.29197 -10.29031 -10.28433 -10.28295
 Alpha  occ. eigenvalues --  -10.27486 -10.27406 -10.27250 -10.26225 -10.26161
 Alpha  occ. eigenvalues --  -10.25373 -10.24388 -10.23907 -10.22847  -8.60785
 Alpha  occ. eigenvalues --   -6.56019  -6.54734  -6.54704  -2.67562  -2.67207
 Alpha  occ. eigenvalues --   -2.67182  -2.66158  -2.66157  -1.15923  -1.13475
 Alpha  occ. eigenvalues --   -1.11835  -1.07026  -0.94372  -0.94120  -0.92180
 Alpha  occ. eigenvalues --   -0.91537  -0.87635  -0.85600  -0.83160  -0.82270
 Alpha  occ. eigenvalues --   -0.79390  -0.77431  -0.76329  -0.73299  -0.70573
 Alpha  occ. eigenvalues --   -0.68557  -0.67317  -0.64312  -0.61795  -0.60683
 Alpha  occ. eigenvalues --   -0.59262  -0.58031  -0.56543  -0.55301  -0.54803
 Alpha  occ. eigenvalues --   -0.53082  -0.51505  -0.51125  -0.50799  -0.50067
 Alpha  occ. eigenvalues --   -0.49587  -0.49032  -0.47107  -0.46893  -0.45559
 Alpha  occ. eigenvalues --   -0.44923  -0.44526  -0.44082  -0.43831  -0.42397
 Alpha  occ. eigenvalues --   -0.41998  -0.40712  -0.40106  -0.39799  -0.39419
 Alpha  occ. eigenvalues --   -0.39382  -0.39089  -0.38900  -0.38530  -0.38015
 Alpha  occ. eigenvalues --   -0.36300  -0.36036  -0.35990  -0.35615  -0.34864
 Alpha  occ. eigenvalues --   -0.33900  -0.33184  -0.32717  -0.30571  -0.30267
 Alpha  occ. eigenvalues --   -0.27361  -0.24698
 Alpha virt. eigenvalues --   -0.14876  -0.05789  -0.05097  -0.04191  -0.02776
 Alpha virt. eigenvalues --   -0.02125  -0.01936  -0.01167  -0.00838   0.00077
 Alpha virt. eigenvalues --    0.00121   0.00435   0.00920   0.01489   0.02162

 Mulliken charges:
               1
     1  C   -0.123304
     2  O   -0.338696
     3  C   -0.214080
     4  C   -0.703792
     5  C    0.952610
     6  C    0.664287
     7  C   -0.461523
     8  C   -0.378488
     9  N   -0.486817
    10  C   -0.044543
    11  O   -0.343499
    12  C    0.293629
    13  C    0.000208
    14  O   -0.421713
    15  O   -0.247668
    16  C   -0.057896
    17  C   -0.277143
    18  Br  -0.052350
    19  C   -0.258423
    20  C    0.560236
    21  C    0.973732
    22  C    0.032664
    23  N   -0.522833
    24  C   -0.505725
    25  N   -0.478841
    26  H    0.157094
    27  H    0.171170
    28  H    0.156821
    29  H    0.150382
    30  H    0.196614
    31  H    0.176940
    32  H    0.165696
    33  H    0.177812
    34  H    0.185960
    35  H    0.167968
    36  H    0.187743
    37  H    0.209550
    38  H    0.185374
    39  H    0.150847
 Sum of Mulliken charges =  -0.00000

 Dipole moment (field-independent basis, Debye):
    X=              4.2463    Y=              2.9285    Z=              0.8878  Tot=              5.2341
 Quadrupole moment (field-independent basis, Debye-Ang):
   XX=           -199.9192   YY=           -195.4838   ZZ=           -156.8329
   XY=            -23.8450   XZ=              4.0501   YZ=             -3.4796

 Normal termination of Gaussian 16 at Thu Jul 31 17:18:50 2025.
