 Gaussian 16, Revision C.02,
 Gaussian 16:  ES64L-G16RevC.02  7-Dec-2021

 ----------------------------------------------------------
 # td=(50-50,nstates=3) b3lyp/6-31+g(d,p) geom=connectivity
 ----------------------------------------------------------

 -------------------
 Title Card Required
 -------------------
 Symbolic Z-matrix:
 Charge =  0 Multiplicity = 1

                         Standard orientation:
 ---------------------------------------------------------------------
 Center     Atomic      Atomic             Coordinates (Angstroms)
 Number     Number       Type             X           Y           Z
 ---------------------------------------------------------------------
      1          6           0        0.707397   -1.627759   -0.430822
      2          6           0        2.031561   -1.008855   -0.055814
      3          8           0        3.022181   -1.696758    0.012020
      4          6           0        2.118206    0.469484    0.234468
      5          7           0        0.817269    1.064387    0.088369
      6          6           0        0.944104    2.468324    0.372811
      7          7           0       -0.320572    0.419799   -0.254713
      8          6           0       -1.402532    1.058629   -0.349594
      9          6           0       -2.662374    0.344808   -0.729485
     10          6           0       -2.953077   -0.699559    0.263350
     11          7           0       -3.182003   -1.522345    1.045373
     12          1           0        0.843327   -2.718438   -0.605649
     13          1           0       -0.021310   -1.473122    0.396195
     14          1           0        0.323630   -1.148300   -1.359082
     15          1           0        2.480484    0.621899    1.275801
     16          1           0        2.826433    0.946643   -0.479292
     17          1           0       -0.049006    2.959779    0.268179
     18          1           0        1.316548    2.603377    1.412935
     19          1           0        1.662498    2.928120   -0.342157
     20          1           0       -1.421269    2.140823   -0.153270
     21          1           0       -3.504917    1.071383   -0.760302
     22          1           0       -2.536438   -0.121420   -1.732209
 ---------------------------------------------------------------------

 SCF Done:  E(RB3LYP) =  -512.747160511     A.U. after   14 cycles

 Excitation energies and oscillator strengths:

 Excited State   1:      Triplet-A      3.1498 eV  393.62 nm  f=0.0000  <S**2>=2.000
      41 -> 42         0.59837
      41 -> 43         0.33998
 This state for optimization and/or second-order correction.
 Total Energy, E(TD-HF/TD-DFT) =  -512.631406304
 Copying the excited state density for this state as the 1-particle RhoCI density.

 Excited State   2:      Triplet-A      3.7305 eV  332.35 nm  f=0.0000  <S**2>=2.000
      39 -> 43         0.10178
      40 -> 42        -0.48251
      40 -> 43         0.49309

 Excited State   3:      Triplet-A      4.2737 eV  290.11 nm  f=0.0000  <S**2>=2.000
      39 -> 42         0.58342
      39 -> 43         0.30497
      40 -> 42        -0.15530
      40 -> 43        -0.13069

 Excited State   4:      Singlet-A      4.3248 eV  286.68 nm  f=0.0000  <S**2>=0.000
      40 -> 42         0.51834
      40 -> 43        -0.46041

 Excited State   5:      Singlet-A      4.6166 eV  268.56 nm  f=0.0863  <S**2>=0.000
      41 -> 42         0.62470
      41 -> 43        -0.32658

 Excited State   6:      Singlet-A      4.9144 eV  252.29 nm  f=0.0268  <S**2>=0.000
      41 -> 44         0.70042

 The electronic state is 1-A.
 Alpha  occ. eigenvalues --  -19.15040 -14.40490 -14.39157 -14.34695 -10.28731
 Alpha  occ. eigenvalues --  -10.26021 -10.25105 -10.24644 -10.24192 -10.24090
 Alpha  occ. eigenvalues --  -10.18154  -1.05916  -1.04595  -0.91978  -0.89804
 Alpha  occ. eigenvalues --   -0.80285  -0.77888  -0.71891  -0.70194  -0.59530
 Alpha  occ. eigenvalues --   -0.58377  -0.53205  -0.52102  -0.51841  -0.50893
 Alpha  occ. eigenvalues --   -0.47309  -0.46164  -0.45123  -0.45027  -0.42244
 Alpha  occ. eigenvalues --   -0.41775  -0.41199  -0.39813  -0.39395  -0.37071
 Alpha  occ. eigenvalues --   -0.34979  -0.34094  -0.33859  -0.27114  -0.25662
 Alpha  occ. eigenvalues --   -0.23334
 Alpha virt. eigenvalues --   -0.03961  -0.02216  -0.02115  -0.00308   0.00064
 Alpha virt. eigenvalues --    0.01692   0.02025   0.02621   0.03399   0.03729
 Alpha virt. eigenvalues --    0.04526   0.04690   0.05887   0.06459   0.06749

 Mulliken charges:
               1
     1  C   -0.390752
     2  C    0.254354
     3  O   -0.432065
     4  C   -0.195134
     5  N    0.056204
     6  C   -0.243095
     7  N   -0.035739
     8  C   -0.260950
     9  C   -0.339061
    10  C    0.313621
    11  N   -0.487297
    12  H    0.147170
    13  H    0.187712
    14  H    0.163298
    15  H    0.172946
    16  H    0.170974
    17  H    0.128129
    18  H    0.155711
    19  H    0.154035
    20  H    0.093838
    21  H    0.186094
    22  H    0.200007
 Sum of Mulliken charges =  -0.00000

 Dipole moment (field-independent basis, Debye):
    X=             -0.7191    Y=              6.3726    Z=             -2.2038  Tot=              6.7812
 Quadrupole moment (field-independent basis, Debye-Ang):
   XX=            -79.3384   YY=            -70.3769   ZZ=            -66.7175
   XY=              0.5281   XZ=              8.7870   YZ=              3.9255

 Normal termination of Gaussian 16 at Thu Jul 31 17:14:54 2025.
