 Gaussian 16, Revision C.02,
 Gaussian 16:  ES64L-G16RevC.02  7-Dec-2021

 ----------------------------------------------------------
 # td=(50-50,nstates=3) b3lyp/6-31+g(d,p) geom=connectivity
 ----------------------------------------------------------

 -------------------
 Title Card Required
 -------------------
 Symbolic Z-matrix:
 Charge =  0 Multiplicity = 1

                         Standard orientation:
 ---------------------------------------------------------------------
 Center     Atomic      Atomic             Coordinates (Angstroms)
 Number     Number       Type             X           Y           Z
 ---------------------------------------------------------------------
      1          6           0        0.205904   -3.910073   -0.165781
      2          6           0        1.356001   -3.528030   -1.088096
      3          8           0        2.254366   -2.580652   -0.477180
      4          6           0        2.003514   -1.260369   -0.472576
      5          6           0        0.912268   -0.656860   -1.026456
      6          6           0        0.706797    0.773197   -0.999605
      7          6           0       -0.399560    1.331582   -1.610031
      8          6           0       -0.699667    2.725825   -1.605023
      9          7           0       -1.092962    3.821621   -1.690281
     10          6           0       -1.428686    0.504389   -2.376813
     11          6           0       -2.403016   -0.304819   -1.523260
     12          6           0       -2.841974   -1.556690   -1.975646
     13          6           0       -3.772215   -2.277335   -1.228379
     14          6           0       -4.269557   -1.762964   -0.027249
     15          6           0       -3.849833   -0.512859    0.451319
     16          6           0       -4.376634    0.100864    1.762980
     17          6           0       -5.384918   -0.820549    2.476999
     18          6           0       -3.192521    0.357029    2.727276
     19          6           0       -5.084701    1.442980    1.453578
     20          6           0       -2.912450    0.196116   -0.321183
     21          6           0        1.736030    1.559557   -0.302451
     22          8           0        1.513123    2.880066   -0.268470
     23          6           0        2.459218    3.763335    0.371775
     24          6           0        1.929466    5.177976    0.239209
     25          6           0        2.830354    0.953503    0.251358
     26          6           0        3.036613   -0.464516    0.197497
     27          6           0        4.176556   -1.029935    0.767707
     28          6           0        4.524492   -2.414815    0.795362
     29          7           0        4.912583   -3.510687    0.879712
     30          6           0        5.135611   -0.182163    1.405695
     31          7           0        5.905037    0.525540    1.921468
     32          1           0       -0.393892   -4.692998   -0.642265
     33          1           0        0.594567   -4.303084    0.777852
     34          1           0       -0.453841   -3.065812    0.050213
     35          1           0        1.008034   -3.132697   -2.049831
     36          1           0        1.995664   -4.390403   -1.287310
     37          1           0        0.148022   -1.267172   -1.482985
     38          1           0       -2.001753    1.188873   -3.011365
     39          1           0       -0.905474   -0.171803   -3.062382
     40          1           0       -2.464104   -1.961328   -2.911885
     41          1           0       -4.113999   -3.247044   -1.579742
     42          1           0       -4.989704   -2.350507    0.529704
     43          1           0       -5.726361   -0.341886    3.400686
     44          1           0       -6.269844   -1.014162    1.861274
     45          1           0       -4.938097   -1.782476    2.750909
     46          1           0       -3.555817    0.796201    3.663360
     47          1           0       -2.459358    1.047616    2.299808
     48          1           0       -2.674080   -0.577164    2.969254
     49          1           0       -5.931207    1.291780    0.775113
     50          1           0       -5.465799    1.891121    2.378351
     51          1           0       -4.407498    2.165487    0.988398
     52          1           0       -2.571251    1.168471    0.020825
     53          1           0        2.560341    3.467247    1.423131
     54          1           0        3.433362    3.649505   -0.119427
     55          1           0        2.629334    5.871261    0.716507
     56          1           0        1.821081    5.458125   -0.811692
     57          1           0        0.954218    5.277420    0.722696
     58          1           0        3.582403    1.548544    0.750463
 ---------------------------------------------------------------------

 SCF Done:  E(RB3LYP) =  -1321.72543076     A.U. after   17 cycles

 Excitation energies and oscillator strengths:

 Excited State   1:      Triplet-A      0.9363 eV 1324.17 nm  f=0.0000  <S**2>=2.000
     110 ->111         0.74062
     110 <-111         0.25320
 This state for optimization and/or second-order correction.
 Total Energy, E(TD-HF/TD-DFT) =  -1321.69102168
 Copying the excited state density for this state as the 1-particle RhoCI density.

 Excited State   2:      Triplet-A      1.9175 eV  646.58 nm  f=0.0000  <S**2>=2.000
     109 ->111         0.69164

 Excited State   3:      Singlet-A      2.5898 eV  478.73 nm  f=0.0015  <S**2>=0.000
     109 ->111         0.70059

 Excited State   4:      Triplet-A      2.7785 eV  446.23 nm  f=0.0000  <S**2>=2.000
     107 ->111        -0.31158
     108 ->111         0.62130

 Excited State   5:      Singlet-A      2.7947 eV  443.64 nm  f=0.0664  <S**2>=0.000
     107 ->111        -0.24088
     108 ->111         0.62249
     110 ->111         0.23208

 Excited State   6:      Singlet-A      2.8439 eV  435.97 nm  f=0.2096  <S**2>=0.000
     107 ->111         0.49811
     108 ->111         0.33166
     110 ->111        -0.37857

 The electronic state is 1-A.
 Alpha  occ. eigenvalues --  -19.22537 -19.22157 -14.35921 -14.35453 -14.34895
 Alpha  occ. eigenvalues --  -10.30519 -10.30310 -10.28028 -10.27415 -10.27321
 Alpha  occ. eigenvalues --  -10.27296 -10.26951 -10.26201 -10.25299 -10.24853
 Alpha  occ. eigenvalues --  -10.24694 -10.23412 -10.23003 -10.22757 -10.22547
 Alpha  occ. eigenvalues --  -10.22093 -10.21631 -10.21165 -10.21057 -10.20665
 Alpha  occ. eigenvalues --  -10.20591 -10.20582 -10.19999 -10.18852 -10.18838
 Alpha  occ. eigenvalues --  -10.18676  -1.11371  -1.10960  -0.93378  -0.92538
 Alpha  occ. eigenvalues --   -0.91391  -0.90450  -0.88465  -0.86515  -0.83567
 Alpha  occ. eigenvalues --   -0.81949  -0.81478  -0.79520  -0.78200  -0.76656
 Alpha  occ. eigenvalues --   -0.75511  -0.73721  -0.70646  -0.69715  -0.69617
 Alpha  occ. eigenvalues --   -0.68224  -0.66342  -0.65196  -0.63270  -0.62837
 Alpha  occ. eigenvalues --   -0.60796  -0.58981  -0.58634  -0.56436  -0.55784
 Alpha  occ. eigenvalues --   -0.53766  -0.52929  -0.52454  -0.51589  -0.50116
 Alpha  occ. eigenvalues --   -0.49076  -0.48848  -0.48128  -0.47319  -0.46952
 Alpha  occ. eigenvalues --   -0.46039  -0.45251  -0.45151  -0.44510  -0.43985
 Alpha  occ. eigenvalues --   -0.43775  -0.43289  -0.42496  -0.42222  -0.41702
 Alpha  occ. eigenvalues --   -0.41606  -0.40744  -0.40560  -0.39707  -0.39251
 Alpha  occ. eigenvalues --   -0.39176  -0.38770  -0.38410  -0.38226  -0.37964
 Alpha  occ. eigenvalues --   -0.37826  -0.37797  -0.37498  -0.37166  -0.36902
 Alpha  occ. eigenvalues --   -0.36771  -0.36602  -0.35286  -0.35228  -0.34403
 Alpha  occ. eigenvalues --   -0.33904  -0.33451  -0.33400  -0.33069  -0.32732
 Alpha  occ. eigenvalues --   -0.32231  -0.26674  -0.26237  -0.25855  -0.23779
 Alpha virt. eigenvalues --   -0.14006  -0.04045  -0.03307  -0.03141  -0.01999
 Alpha virt. eigenvalues --   -0.01758  -0.01281  -0.00735  -0.00441   0.00427
 Alpha virt. eigenvalues --    0.00593   0.01111   0.01464   0.01565   0.01939

 Mulliken charges:
               1
     1  C   -0.335140
     2  C   -0.053148
     3  O   -0.286544
     4  C   -0.351392
     5  C   -0.859013
     6  C    0.715906
     7  C    0.482084
     8  C    0.483238
     9  N   -0.465681
    10  C   -0.241903
    11  C    0.224338
    12  C   -0.047012
    13  C   -0.354405
    14  C   -0.060870
    15  C    0.050976
    16  C    0.484597
    17  C   -0.481409
    18  C   -0.505187
    19  C   -0.487688
    20  C   -0.710820
    21  C   -0.110863
    22  O   -0.338672
    23  C    0.388939
    24  C   -0.814012
    25  C   -0.430715
    26  C    0.468143
    27  C    1.037617
    28  C    0.082710
    29  N   -0.525595
    30  C   -0.457878
    31  N   -0.484674
    32  H    0.152403
    33  H    0.171058
    34  H    0.166742
    35  H    0.126439
    36  H    0.165307
    37  H    0.118011
    38  H    0.185164
    39  H    0.149139
    40  H    0.107912
    41  H    0.122970
    42  H    0.122303
    43  H    0.149567
    44  H    0.152245
    45  H    0.151627
    46  H    0.147341
    47  H    0.140216
    48  H    0.149369
    49  H    0.151472
    50  H    0.146559
    51  H    0.148037
    52  H    0.112186
    53  H    0.148494
    54  H    0.149212
    55  H    0.152550
    56  H    0.175089
    57  H    0.173311
    58  H    0.149348
 Sum of Mulliken charges =  -0.00000

 Dipole moment (field-independent basis, Debye):
    X=             -6.0668    Y=             -0.6634    Z=             -2.0515  Tot=              6.4386
 Quadrupole moment (field-independent basis, Debye-Ang):
   XX=           -227.5302   YY=           -192.0579   ZZ=           -185.0528
   XY=             28.9235   XZ=            -19.4161   YZ=             16.0487

 Normal termination of Gaussian 16 at Thu Jul 31 17:40:08 2025.
