 Gaussian 16, Revision C.02,
 Gaussian 16:  ES64L-G16RevC.02  7-Dec-2021

 ----------------------------------------------------------
 # td=(50-50,nstates=3) b3lyp/6-31+g(d,p) geom=connectivity
 ----------------------------------------------------------

 -------------------
 Title Card Required
 -------------------
 Symbolic Z-matrix:
 Charge =  0 Multiplicity = 1

                         Standard orientation:
 ---------------------------------------------------------------------
 Center     Atomic      Atomic             Coordinates (Angstroms)
 Number     Number       Type             X           Y           Z
 ---------------------------------------------------------------------
      1          6           0       -2.814230   -2.186737   -2.030159
      2          6           0       -2.882681   -1.070610   -1.034915
      3          7           0       -3.965664   -0.558956   -0.587921
      4          8           0       -5.158007   -0.965663   -0.968398
      5          6           0       -3.765259    0.522207    0.386801
      6          8           0       -4.609078    0.373459    1.496528
      7          6           0       -2.307690    0.320831    0.767629
      8          6           0       -0.725747    2.672401    1.411898
      9          6           0       -2.150288   -0.465633    2.062355
     10          6           0       -1.698242   -0.401555   -0.427442
     11          7           0       -0.694314   -1.385792    0.002164
     12          6           0        0.426439   -0.810844    0.032663
     13          6           0        1.828377   -1.421772    0.427718
     14          6           0        2.668300   -0.390759    0.289545
     15          6           0        4.141012   -0.456105    0.549875
     16          6           0        4.504363   -1.815646    0.974576
     17          7           0        4.790704   -2.886689    1.309171
     18          6           0        4.870842   -0.116190   -0.680054
     19          7           0        5.445760    0.151530   -1.648909
     20          6           0        2.018114    0.706343   -0.112027
     21          6           0        2.504065    1.924490   -0.371875
     22          6           0        1.681770    2.901873   -0.767076
     23          6           0        0.372768    2.662269   -0.897728
     24          6           0       -0.111611    1.441494   -0.647294
     25          6           0        0.712242    0.461646   -0.261659
     26          1           0       -1.749145   -2.432607   -2.240041
     27          1           0       -3.326966   -3.083836   -1.616591
     28          1           0       -3.315403   -1.873814   -2.973416
     29          1           0       -3.995043    1.537278   -0.007638
     30          1           0       -5.489726    0.510171    1.191155
     31          1           0       -0.306174    2.705631    2.442255
     32          1           0        0.097071    2.796291    0.672639
     33          1           0       -1.465602    3.494285    1.285995
     34          1           0       -1.586749    0.145679    2.802182
     35          1           0       -3.155862   -0.709462    2.472367
     36          1           0       -1.593337   -1.407569    1.858703
     37          1           0       -1.160772    0.274798   -1.129235
     38          1           0        2.058800   -2.450588    0.741658
     39          1           0        4.408128    0.267084    1.352665
     40          1           0        3.580322    2.122524   -0.260577
     41          1           0        2.082108    3.903074   -0.984714
     42          1           0       -0.305585    3.469505   -1.211172
     43          1           0       -1.310042    1.362310   -0.179792
 ---------------------------------------------------------------------

 SCF Done:  E(RB3LYP) =  -1103.84327972     A.U. after   21 cycles

 Excitation energies and oscillator strengths:

 Excited State   1:      Triplet-A      -1.3652 eV    -908.19 nm  f=-0.0000  <S**2>=2.000
      85 -> 89         0.14680
      87 -> 89         0.43066
      88 -> 89         0.52475
 This state for optimization and/or second-order correction.
 Total Energy, E(TD-HF/TD-DFT) =  -1103.89344938
 Copying the excited state density for this state as the 1-particle RhoCI density.

 Excited State   2:      Triplet-A      1.4377 eV  862.37 nm  f=0.0000  <S**2>=2.000
      87 -> 89         0.52519
      88 -> 89        -0.46253

 Excited State   3:      Singlet-A      1.4382 eV  862.09 nm  f=0.0112  <S**2>=0.000
      87 -> 89        -0.31717
      88 -> 89         0.62998

 Excited State   4:      Triplet-A      1.9043 eV  651.09 nm  f=0.0000  <S**2>=2.000
      85 -> 89        -0.10194
      86 -> 89         0.66670
      86 -> 90         0.10854

 Excited State   5:      Singlet-A      2.0616 eV  601.41 nm  f=0.0059  <S**2>=0.000
      86 -> 89         0.59900
      87 -> 89         0.28414
      88 -> 89         0.14982
      88 -> 90         0.16664

 Excited State   6:      Singlet-A      2.1529 eV  575.89 nm  f=0.0028  <S**2>=0.000
      86 -> 89        -0.32031
      87 -> 89         0.29119
      88 -> 89         0.11571
      88 -> 90         0.53191

 The electronic state is 1-A.
 Alpha  occ. eigenvalues --  -19.19010 -19.13765 -14.47524 -14.37914 -14.37883
 Alpha  occ. eigenvalues --  -14.36605 -10.32012 -10.31508 -10.27218 -10.27189
 Alpha  occ. eigenvalues --  -10.26566 -10.26093 -10.25692 -10.24756 -10.24160
 Alpha  occ. eigenvalues --  -10.23366 -10.23228 -10.21445 -10.21425 -10.21358
 Alpha  occ. eigenvalues --  -10.21010 -10.20867 -10.20185 -10.19747 -10.19460
 Alpha  occ. eigenvalues --   -1.11560  -1.06569  -1.00092  -0.96338  -0.94595
 Alpha  occ. eigenvalues --   -0.94168  -0.91751  -0.89656  -0.85280  -0.81311
 Alpha  occ. eigenvalues --   -0.80564  -0.78176  -0.76616  -0.72789  -0.70723
 Alpha  occ. eigenvalues --   -0.70535  -0.68712  -0.65993  -0.63097  -0.61959
 Alpha  occ. eigenvalues --   -0.60396  -0.59431  -0.57919  -0.56189  -0.55898
 Alpha  occ. eigenvalues --   -0.54161  -0.53869  -0.52710  -0.50458  -0.49349
 Alpha  occ. eigenvalues --   -0.48018  -0.47699  -0.47352  -0.46350  -0.45229
 Alpha  occ. eigenvalues --   -0.44105  -0.43739  -0.43107  -0.42549  -0.41720
 Alpha  occ. eigenvalues --   -0.41380  -0.41226  -0.40613  -0.40350  -0.39978
 Alpha  occ. eigenvalues --   -0.39842  -0.39342  -0.38163  -0.37753  -0.37594
 Alpha  occ. eigenvalues --   -0.36864  -0.36514  -0.36106  -0.35602  -0.35337
 Alpha  occ. eigenvalues --   -0.32792  -0.32014  -0.30024  -0.26998  -0.26600
 Alpha  occ. eigenvalues --   -0.25340  -0.24044  -0.22100
 Alpha virt. eigenvalues --   -0.14639  -0.11288  -0.05475  -0.03784  -0.03460
 Alpha virt. eigenvalues --   -0.02827  -0.01652  -0.00729  -0.00529   0.00153
 Alpha virt. eigenvalues --    0.00551   0.00623   0.01076   0.01337   0.01992

 Mulliken charges:
               1
     1  C   -0.577922
     2  C    1.112220
     3  N   -0.461942
     4  O    0.048453
     5  C    0.332768
     6  O   -0.470455
     7  C   -0.437809
     8  C   -0.428225
     9  C   -0.372301
    10  C   -0.638846
    11  N    0.013628
    12  C   -1.610568
    13  C   -0.733074
    14  C    0.720225
    15  C    0.601275
    16  C    0.054123
    17  N   -0.424722
    18  C   -0.154054
    19  N   -0.395684
    20  C    0.632880
    21  C    0.007647
    22  C   -0.456293
    23  C    0.041040
    24  C    0.060145
    25  C    0.283722
    26  H    0.163926
    27  H    0.188967
    28  H    0.181261
    29  H    0.149885
    30  H    0.386950
    31  H    0.147476
    32  H    0.168253
    33  H    0.158195
    34  H    0.167085
    35  H    0.192738
    36  H    0.194503
    37  H    0.188682
    38  H    0.168583
    39  H    0.234292
    40  H    0.127894
    41  H    0.132308
    42  H    0.149618
    43  H    0.153153
 Sum of Mulliken charges =  -0.00000

 Dipole moment (field-independent basis, Debye):
    X=             -0.1307    Y=              5.7612    Z=              1.6661  Tot=              5.9987
 Quadrupole moment (field-independent basis, Debye-Ang):
   XX=           -188.5184   YY=           -147.8394   ZZ=           -152.8477
   XY=              3.7853   XZ=              7.7229   YZ=              5.3849

 Normal termination of Gaussian 16 at Thu Jul 31 17:27:27 2025.
