 Gaussian 16, Revision C.02,
 Gaussian 16:  ES64L-G16RevC.02  7-Dec-2021

 ----------------------------------------------------------
 # td=(50-50,nstates=3) b3lyp/6-31+g(d,p) geom=connectivity
 ----------------------------------------------------------

 -------------------
 Title Card Required
 -------------------
 Symbolic Z-matrix:
 Charge =  0 Multiplicity = 1

                         Standard orientation:
 ---------------------------------------------------------------------
 Center     Atomic      Atomic             Coordinates (Angstroms)
 Number     Number       Type             X           Y           Z
 ---------------------------------------------------------------------
      1          6           0       -4.619030   -0.485100    1.268971
      2          6           0       -4.232068    0.291188   -0.000662
      3          6           0       -4.618236   -0.487850   -1.268865
      4          6           0       -2.750531    0.737637   -0.000692
      5          6           0       -1.724603   -0.402268    0.000729
      6          6           0       -0.274448    0.017770    0.000338
      7          6           0        0.182150    1.312010    0.000160
      8          6           0        1.585491    1.643490   -0.000029
      9         17           0        2.001393    3.345328   -0.000251
     10          6           0        2.580511    0.703913   -0.000062
     11          6           0        2.124631   -0.637151    0.000088
     12          6           0        0.746484   -0.998772    0.000261
     13          7           0        0.589698   -2.314014    0.000397
     14          8           0        1.851114   -2.845804    0.000200
     15          7           0        2.830320   -1.777318   -0.000020
     16          8           0        4.025488   -2.056543   -0.000177
     17          1           0       -5.699606   -0.662884    1.298459
     18          1           0       -4.129180   -1.464643    1.313706
     19          1           0       -4.347901    0.068466    2.175540
     20          1           0       -4.817865    1.221532   -0.001825
     21          1           0       -4.346248    0.063561   -2.176487
     22          1           0       -5.698828   -0.665435   -1.298818
     23          1           0       -4.128559   -1.467599   -1.310963
     24          1           0       -2.583805    1.372273   -0.881567
     25          1           0       -2.584375    1.374054    0.879004
     26          1           0       -1.878682   -1.052217    0.871874
     27          1           0       -1.878560   -1.054327   -0.868843
     28          1           0       -0.520129    2.136611    0.000151
     29          1           0        3.635002    0.948918   -0.000210
 ---------------------------------------------------------------------

 SCF Done:  E(RB3LYP) =  -1147.04699660     A.U. after   17 cycles

 Excitation energies and oscillator strengths:

 Excited State   1:      Triplet-A      1.3038 eV  950.93 nm  f=0.0000  <S**2>=2.000
      61 -> 66         0.11237
      63 -> 64         0.72051
      63 <- 64         0.22397
 This state for optimization and/or second-order correction.
 Total Energy, E(TD-HF/TD-DFT) =  -1146.99908215
 Copying the excited state density for this state as the 1-particle RhoCI density.

 Excited State   2:      Triplet-A      3.2828 eV  377.68 nm  f=0.0000  <S**2>=2.000
      61 -> 64         0.57257
      63 -> 65        -0.10873
      63 -> 66         0.35707

 Excited State   3:      Singlet-A      3.2904 eV  376.81 nm  f=0.1319  <S**2>=0.000
      63 -> 64         0.69914

 Excited State   4:      Triplet-A      3.5631 eV  347.97 nm  f=0.0000  <S**2>=2.000
      62 -> 64         0.63402
      63 -> 65         0.25772

 Excited State   5:      Singlet-A      4.1327 eV  300.01 nm  f=0.0004  <S**2>=0.000
      60 -> 64         0.69749

 Excited State   6:      Singlet-A      4.5141 eV  274.66 nm  f=0.0367  <S**2>=0.000
      61 -> 64         0.14538
      62 -> 64         0.58790
      63 -> 65        -0.31876
      63 -> 66        -0.16345

 The electronic state is 1-A.
 Alpha  occ. eigenvalues -- -101.57841 -19.29378 -19.20251 -14.55943 -14.42518
 Alpha  occ. eigenvalues --  -10.29259 -10.28025 -10.26994 -10.25084 -10.24540
 Alpha  occ. eigenvalues --  -10.23934 -10.21634 -10.20764 -10.20455 -10.18762
 Alpha  occ. eigenvalues --  -10.18762  -9.49331  -7.25750  -7.24769  -7.24725
 Alpha  occ. eigenvalues --   -1.23176  -1.13330  -0.94216  -0.90185  -0.89877
 Alpha  occ. eigenvalues --   -0.84653  -0.82239  -0.79765  -0.74862  -0.70543
 Alpha  occ. eigenvalues --   -0.69629  -0.67514  -0.66299  -0.60973  -0.57957
 Alpha  occ. eigenvalues --   -0.55682  -0.55182  -0.55146  -0.52229  -0.49477
 Alpha  occ. eigenvalues --   -0.48967  -0.48433  -0.45952  -0.44714  -0.44128
 Alpha  occ. eigenvalues --   -0.43947  -0.43248  -0.42759  -0.41574  -0.40473
 Alpha  occ. eigenvalues --   -0.39156  -0.38898  -0.37886  -0.37431  -0.36026
 Alpha  occ. eigenvalues --   -0.34125  -0.34110  -0.33812  -0.33246  -0.30907
 Alpha  occ. eigenvalues --   -0.30512  -0.30066  -0.23838
 Alpha virt. eigenvalues --   -0.11033  -0.02514  -0.02167  -0.01134  -0.00882
 Alpha virt. eigenvalues --    0.00270   0.00618   0.01659   0.01930   0.02405
 Alpha virt. eigenvalues --    0.03336   0.04152   0.04482   0.04650   0.05063

 Mulliken charges:
               1
     1  C   -0.543296
     2  C    0.281340
     3  C   -0.543223
     4  C   -0.546931
     5  C   -0.352085
     6  C    1.333433
     7  C   -0.960726
     8  C   -0.254158
     9  Cl   0.286650
    10  C    0.669323
    11  C   -0.513945
    12  C   -0.156670
    13  N   -0.545558
    14  O    0.361036
    15  N   -0.528514
    16  O    0.043464
    17  H    0.147240
    18  H    0.147694
    19  H    0.142337
    20  H    0.132280
    21  H    0.142338
    22  H    0.147239
    23  H    0.147699
    24  H    0.144738
    25  H    0.144695
    26  H    0.174997
    27  H    0.174979
    28  H    0.150770
    29  H    0.172854
 Sum of Mulliken charges =  -0.00000

 Dipole moment (field-independent basis, Debye):
    X=             -3.6261    Y=              2.7924    Z=              0.0003  Tot=              4.5767
 Quadrupole moment (field-independent basis, Debye-Ang):
   XX=           -107.3127   YY=           -114.4603   ZZ=           -102.9614
   XY=              6.4616   XZ=              0.0009   YZ=              0.0004

 Normal termination of Gaussian 16 at Fri Sep 19 01:48:40 2025.
