 Gaussian 16, Revision C.02,
 Gaussian 16:  ES64L-G16RevC.02  7-Dec-2021

 ----------------------------------------------------------
 # td=(50-50,nstates=3) b3lyp/6-31+g(d,p) geom=connectivity
 ----------------------------------------------------------

 -------------------
 Title Card Required
 -------------------
 Symbolic Z-matrix:
 Charge =  0 Multiplicity = 1

                         Standard orientation:
 ---------------------------------------------------------------------
 Center     Atomic      Atomic             Coordinates (Angstroms)
 Number     Number       Type             X           Y           Z
 ---------------------------------------------------------------------
      1          6           0        2.369862   -0.281629    1.274048
      2          6           0        1.576433    0.080117   -0.000466
      3          6           0        2.370334   -0.285664   -1.273477
      4          6           0        0.261154   -0.636000    0.000461
      5          6           0       -0.967837   -0.063655    0.000444
      6          6           0       -2.160916   -0.866565    0.000297
      7          7           0       -3.119615   -1.524984    0.000682
      8          6           0       -1.152219    1.363025   -0.000276
      9          7           0       -1.299464    2.516748   -0.001840
     10          1           0        3.330656    0.242968    1.273513
     11          1           0        1.826475    0.004394    2.179520
     12          1           0        2.573662   -1.357584    1.321380
     13          1           0        1.393314    1.160490   -0.002096
     14          1           0        1.827074   -0.003114   -2.180121
     15          1           0        3.330924    0.239330   -1.274496
     16          1           0        2.574574   -1.361705   -1.316838
     17          1           0        0.295997   -1.724903    0.001052
 ---------------------------------------------------------------------

 SCF Done:  E(RB3LYP) =  -381.040760073     A.U. after   14 cycles

 Excitation energies and oscillator strengths:

 Excited State   1:      Triplet-A      2.9889 eV  414.82 nm  f=0.0000  <S**2>=2.000
      32 -> 33         0.70040
      32 <- 33         0.12236
 This state for optimization and/or second-order correction.
 Total Energy, E(TD-HF/TD-DFT) =  -380.930919915
 Copying the excited state density for this state as the 1-particle RhoCI density.

 Excited State   2:      Triplet-A      5.2118 eV  237.89 nm  f=0.0000  <S**2>=2.000
      29 -> 33         0.55868
      31 -> 34         0.19000
      32 -> 38        -0.25568
      32 -> 39        -0.16348

 Excited State   3:      Singlet-A      5.3868 eV  230.16 nm  f=0.4117  <S**2>=0.000
      32 -> 33         0.69028

 Excited State   4:      Triplet-A      5.5179 eV  224.70 nm  f=0.0000  <S**2>=2.000
      29 -> 34         0.11702
      30 -> 33         0.10756
      30 -> 38        -0.10076
      31 -> 33         0.65182

 Excited State   5:      Singlet-A      5.8276 eV  212.75 nm  f=0.0006  <S**2>=0.000
      31 -> 33         0.69831

 Excited State   6:      Singlet-A      6.0114 eV  206.25 nm  f=0.0017  <S**2>=0.000
      30 -> 33         0.64875
      32 -> 34        -0.23032

 The electronic state is 1-A.
 Alpha  occ. eigenvalues --  -14.37221 -14.36952 -10.29678 -10.27161 -10.26494
 Alpha  occ. eigenvalues --  -10.26256 -10.24152 -10.21390 -10.21389  -0.94548
 Alpha  occ. eigenvalues --   -0.93120  -0.88032  -0.82236  -0.72011  -0.70480
 Alpha  occ. eigenvalues --   -0.63829  -0.59244  -0.54318  -0.47531  -0.45853
 Alpha  occ. eigenvalues --   -0.45550  -0.42443  -0.41827  -0.39847  -0.39623
 Alpha  occ. eigenvalues --   -0.38510  -0.38122  -0.37650  -0.36862  -0.36578
 Alpha  occ. eigenvalues --   -0.35702  -0.30010
 Alpha virt. eigenvalues --   -0.09939  -0.02602  -0.01273   0.00314   0.00766
 Alpha virt. eigenvalues --    0.01207   0.01594   0.02641   0.03859   0.04246
 Alpha virt. eigenvalues --    0.04576   0.04818   0.05853   0.06300   0.07328

 Mulliken charges:
               1
     1  C   -0.566235
     2  C    0.469301
     3  C   -0.566008
     4  C   -0.133399
     5  C    0.974258
     6  C   -0.107386
     7  N   -0.483749
     8  C   -0.365478
     9  N   -0.490175
    10  H    0.159627
    11  H    0.162643
    12  H    0.155196
    13  H    0.155961
    14  H    0.162637
    15  H    0.159631
    16  H    0.155185
    17  H    0.157992
 Sum of Mulliken charges =  -0.00000

 Dipole moment (field-independent basis, Debye):
    X=              5.5517    Y=             -1.7010    Z=              0.0020  Tot=              5.8064
 Quadrupole moment (field-independent basis, Debye-Ang):
   XX=            -63.4909   YY=            -65.1531   ZZ=            -53.4771
   XY=             -2.8095   XZ=             -0.0014   YZ=              0.0086

 Normal termination of Gaussian 16 at Thu Jul 31 17:30:47 2025.
