 Gaussian 16, Revision C.02,
 Gaussian 16:  ES64L-G16RevC.02  7-Dec-2021

 ----------------------------------------------------------
 # td=(50-50,nstates=3) b3lyp/6-31+g(d,p) geom=connectivity
 ----------------------------------------------------------

 -------------------
 Title Card Required
 -------------------
 Symbolic Z-matrix:
 Charge =  0 Multiplicity = 1

                         Standard orientation:
 ---------------------------------------------------------------------
 Center     Atomic      Atomic             Coordinates (Angstroms)
 Number     Number       Type             X           Y           Z
 ---------------------------------------------------------------------
      1          6           0       -4.411177    0.932938   -1.807468
      2          8           0       -4.608386   -0.139690   -0.888298
      3          6           0       -3.532554   -0.632961   -0.214562
      4          6           0       -3.803506   -1.662071    0.701280
      5          6           0       -2.764421   -2.234361    1.426172
      6          6           0       -1.447019   -1.799663    1.255818
      7          6           0       -1.175340   -0.762810    0.352991
      8          6           0        0.221082   -0.293343    0.174540
      9          6           0        0.630548    1.021484    0.216862
     10          7           0       -0.376233    2.074223    0.501393
     11          8           0       -0.695983    2.236844    1.671427
     12          8           0       -0.801939    2.707405   -0.461596
     13          6           0        1.991459    1.470684    0.039008
     14         17           0        2.352826    3.169950    0.158645
     15          6           0        3.005465    0.580373   -0.192604
     16          6           0        2.625535   -0.778919   -0.246515
     17          6           0        1.287608   -1.234100   -0.071363
     18          7           0        1.206364   -2.551930   -0.187240
     19          8           0        2.478338   -2.988252   -0.428837
     20          7           0        3.386328   -1.861810   -0.470924
     21          8           0        4.578933   -2.051827   -0.675714
     22          6           0       -2.220138   -0.182604   -0.391659
     23          1           0       -5.401870    1.176053   -2.192021
     24          1           0       -3.985066    1.811262   -1.308959
     25          1           0       -3.763038    0.629502   -2.638747
     26          1           0       -4.829240   -1.994519    0.821601
     27          1           0       -2.979193   -3.029997    2.132863
     28          1           0       -0.645264   -2.253687    1.826057
     29          1           0        4.035003    0.890035   -0.321213
     30          1           0       -1.997562    0.595089   -1.110010
 ---------------------------------------------------------------------

 SCF Done:  E(RB3LYP) =  -1500.54214739     A.U. after   19 cycles

 Excitation energies and oscillator strengths:

 Excited State   1:      Triplet-A      1.2052 eV 1028.74 nm  f=0.0000  <S**2>=2.000
      80 -> 83         0.13722
      81 -> 83         0.58027
      81 -> 85         0.10709
      82 -> 83         0.38678
      81 <- 83         0.19101
      82 <- 83         0.10978
 This state for optimization and/or second-order correction.
 Total Energy, E(TD-HF/TD-DFT) =  -1500.49785705
 Copying the excited state density for this state as the 1-particle RhoCI density.

 Excited State   2:      Triplet-A      2.3927 eV  518.18 nm  f=0.0000  <S**2>=2.000
      80 -> 83        -0.11635
      81 -> 83        -0.33275
      82 -> 83         0.57909
      82 -> 85        -0.13936

 Excited State   3:      Singlet-A      2.5340 eV  489.29 nm  f=0.0419  <S**2>=0.000
      81 -> 83        -0.17212
      82 -> 83         0.67859

 Excited State   4:      Triplet-A      2.7782 eV  446.28 nm  f=0.0000  <S**2>=2.000
      74 -> 84         0.26839
      79 -> 84         0.10684
      81 -> 83         0.11006
      82 -> 84         0.59686

 Excited State   5:      Singlet-A      2.8493 eV  435.14 nm  f=0.0007  <S**2>=0.000
      81 -> 83         0.17580
      82 -> 84         0.67482

 Excited State   6:      Singlet-A      3.0336 eV  408.70 nm  f=0.1020  <S**2>=0.000
      80 -> 83        -0.10976
      81 -> 83         0.57923
      81 -> 84         0.29322
      82 -> 83         0.16944
      82 -> 84        -0.17621

 The electronic state is 1-A.
 Alpha  occ. eigenvalues -- -101.59661 -19.31036 -19.23165 -19.22964 -19.21907
 Alpha  occ. eigenvalues --  -19.20346 -14.61333 -14.57621 -14.44124 -10.31824
 Alpha  occ. eigenvalues --  -10.30756 -10.29785 -10.29172 -10.28090 -10.27515
 Alpha  occ. eigenvalues --  -10.26663 -10.25559 -10.24103 -10.21829 -10.21706
 Alpha  occ. eigenvalues --  -10.21444 -10.21259  -9.51116  -7.27575  -7.26533
 Alpha  occ. eigenvalues --   -7.26494  -1.27002  -1.24938  -1.15112  -1.09884
 Alpha  occ. eigenvalues --   -1.08675  -0.96756  -0.92488  -0.91859  -0.88884
 Alpha  occ. eigenvalues --   -0.86855  -0.82129  -0.79993  -0.77439  -0.76337
 Alpha  occ. eigenvalues --   -0.71859  -0.69874  -0.67521  -0.66540  -0.62976
 Alpha  occ. eigenvalues --   -0.61345  -0.60063  -0.59084  -0.56825  -0.56622
 Alpha  occ. eigenvalues --   -0.55223  -0.55069  -0.54681  -0.52882  -0.51024
 Alpha  occ. eigenvalues --   -0.50637  -0.49267  -0.48555  -0.48291  -0.46804
 Alpha  occ. eigenvalues --   -0.46178  -0.45404  -0.44742  -0.44177  -0.43443
 Alpha  occ. eigenvalues --   -0.40479  -0.40097  -0.39094  -0.38810  -0.38216
 Alpha  occ. eigenvalues --   -0.36145  -0.35899  -0.35296  -0.34866  -0.34474
 Alpha  occ. eigenvalues --   -0.34273  -0.32528  -0.32448  -0.31186  -0.28026
 Alpha  occ. eigenvalues --   -0.25584  -0.24318
 Alpha virt. eigenvalues --   -0.13140  -0.11319  -0.05918  -0.04558  -0.02894
 Alpha virt. eigenvalues --   -0.02426  -0.01618  -0.00769   0.00307   0.00816
 Alpha virt. eigenvalues --    0.01114   0.01848   0.02448   0.02805   0.03060

 Mulliken charges:
               1
     1  C   -0.134067
     2  O   -0.354190
     3  C    0.186740
     4  C   -0.363340
     5  C    0.282113
     6  C   -0.531691
     7  C    0.935195
     8  C    1.024976
     9  C    0.004154
    10  N   -0.486142
    11  O    0.073710
    12  O    0.063869
    13  C   -0.384100
    14  Cl   0.326587
    15  C    0.408795
    16  C   -0.640935
    17  C   -0.233312
    18  N   -0.525481
    19  O    0.403660
    20  N   -0.546071
    21  O    0.042848
    22  C   -0.742608
    23  H    0.153890
    24  H    0.160168
    25  H    0.146580
    26  H    0.140921
    27  H    0.134806
    28  H    0.134281
    29  H    0.182666
    30  H    0.135976
 Sum of Mulliken charges =  -0.00000

 Dipole moment (field-independent basis, Debye):
    X=             -1.0435    Y=              0.6514    Z=             -0.6830  Tot=              1.4070
 Quadrupole moment (field-independent basis, Debye-Ang):
   XX=           -133.9236   YY=           -143.6943   ZZ=           -130.5287
   XY=             10.9945   XZ=              6.0339   YZ=             -9.2770

 Normal termination of Gaussian 16 at Fri Sep 19 01:38:20 2025.
