 Gaussian 16, Revision C.02,
 Gaussian 16:  ES64L-G16RevC.02  7-Dec-2021

 ----------------------------------------------------------
 # td=(50-50,nstates=3) b3lyp/6-31+g(d,p) geom=connectivity
 ----------------------------------------------------------

 -------------------
 Title Card Required
 -------------------
 Symbolic Z-matrix:
 Charge =  0 Multiplicity = 1

                         Standard orientation:
 ---------------------------------------------------------------------
 Center     Atomic      Atomic             Coordinates (Angstroms)
 Number     Number       Type             X           Y           Z
 ---------------------------------------------------------------------
      1          6           0       -0.349190    3.755486   -0.027166
      2          6           0       -0.813492    2.338243   -0.090288
      3          6           0        0.026540    1.219011   -0.230618
      4          6           0        1.528386    1.294502   -0.329821
      5          8           0        2.093550    2.102799   -1.041231
      6          6           0        2.300080    0.434599    0.690127
      7          8           0        1.899210    0.541780    1.842503
      8          6           0        3.510274   -0.316141    0.293463
      9          6           0        4.307234   -0.873365    1.308757
     10          6           0        5.447323   -1.601694    0.981507
     11          6           0        5.798898   -1.783069   -0.361694
     12          6           0        5.007472   -1.235524   -1.375504
     13          6           0        3.866103   -0.502080   -1.052381
     14          7           0       -0.450489   -0.047250   -0.276982
     15          8           0        0.350068   -1.039221   -0.471699
     16          6           0       -1.820092   -0.258791   -0.134847
     17          6           0       -2.332500   -1.568640   -0.161844
     18          6           0       -3.694118   -1.739585   -0.018311
     19         17           0       -4.370078   -3.352355   -0.038427
     20          6           0       -4.566908   -0.638664    0.143840
     21          6           0       -4.061588    0.645575    0.161557
     22          6           0       -2.676148    0.850644    0.022301
     23          7           0       -2.157269    2.151146    0.033597
     24          8           0       -2.952263    3.148713    0.170931
     25          1           0        0.733572    3.824551   -0.092760
     26          1           0       -0.798068    4.327290   -0.846593
     27          1           0       -0.709680    4.213410    0.899902
     28          1           0        4.014650   -0.724338    2.342900
     29          1           0        6.062399   -2.028759    1.767879
     30          1           0        6.688289   -2.352237   -0.616785
     31          1           0        5.278880   -1.380061   -2.416722
     32          1           0        3.254763   -0.081171   -1.841877
     33          1           0       -1.645053   -2.394527   -0.290297
     34          1           0       -5.631651   -0.811386    0.251881
     35          1           0       -4.696636    1.514386    0.280924
 ---------------------------------------------------------------------

 SCF Done:  E(RB3LYP) =  -1524.96445836     A.U. after   17 cycles

 Excitation energies and oscillator strengths:

 Excited State   1:      Triplet-A      0.9500 eV 1305.04 nm  f=0.0000  <S**2>=2.000
      88 -> 89         0.72101
      88 -> 90         0.16174
      88 -> 93         0.15566
      88 <- 89         0.27143
 This state for optimization and/or second-order correction.
 Total Energy, E(TD-HF/TD-DFT) =  -1524.92954505
 Copying the excited state density for this state as the 1-particle RhoCI density.

 Excited State   2:      Triplet-A      2.4264 eV  510.99 nm  f=0.0000  <S**2>=2.000
      87 -> 89         0.48809
      87 -> 90        -0.44047
      87 -> 92         0.10705
      88 -> 90         0.13632

 Excited State   3:      Triplet-A      2.6499 eV  467.89 nm  f=0.0000  <S**2>=2.000
      80 -> 89         0.12539
      87 -> 90         0.12054
      88 -> 89        -0.16496
      88 -> 90         0.58846
      88 -> 91         0.27564

 Excited State   4:      Singlet-A      2.7122 eV  457.14 nm  f=0.0402  <S**2>=0.000
      88 -> 89         0.58918
      88 -> 90        -0.36032

 Excited State   5:      Singlet-A      2.8890 eV  429.16 nm  f=0.0064  <S**2>=0.000
      85 -> 89        -0.10959
      87 -> 89         0.61936
      87 -> 90        -0.27974

 Excited State   6:      Singlet-A      3.1549 eV  392.99 nm  f=0.1030  <S**2>=0.000
      88 -> 89         0.33130
      88 -> 90         0.59126
      88 -> 91        -0.10668
      88 -> 93        -0.10190

 The electronic state is 1-A.
 Alpha  occ. eigenvalues -- -101.58135 -19.19664 -19.17382 -19.17099 -19.16237
 Alpha  occ. eigenvalues --  -14.51931 -14.51330 -10.32669 -10.30664 -10.29673
 Alpha  occ. eigenvalues --  -10.29080 -10.29013 -10.28837 -10.28765 -10.24826
 Alpha  occ. eigenvalues --  -10.24560 -10.24429 -10.22070 -10.21794 -10.21713
 Alpha  occ. eigenvalues --  -10.21431 -10.21237 -10.21227 -10.21071  -9.49630
 Alpha  occ. eigenvalues --   -7.26054  -7.25066  -7.25018  -1.15330  -1.13945
 Alpha  occ. eigenvalues --   -1.09596  -1.06694  -0.96073  -0.92700  -0.88328
 Alpha  occ. eigenvalues --   -0.87777  -0.87449  -0.82441  -0.81188  -0.78492
 Alpha  occ. eigenvalues --   -0.76758  -0.75271  -0.74037  -0.68901  -0.67122
 Alpha  occ. eigenvalues --   -0.65020  -0.63885  -0.62901  -0.62185  -0.58568
 Alpha  occ. eigenvalues --   -0.56569  -0.54863  -0.53466  -0.52598  -0.50900
 Alpha  occ. eigenvalues --   -0.50390  -0.50048  -0.49405  -0.48577  -0.48358
 Alpha  occ. eigenvalues --   -0.47993  -0.47482  -0.46154  -0.45116  -0.44858
 Alpha  occ. eigenvalues --   -0.44211  -0.43691  -0.43103  -0.42661  -0.42148
 Alpha  occ. eigenvalues --   -0.41861  -0.40742  -0.40293  -0.37807  -0.37533
 Alpha  occ. eigenvalues --   -0.36416  -0.36211  -0.34273  -0.33524  -0.31287
 Alpha  occ. eigenvalues --   -0.30796  -0.30038  -0.28913  -0.28829  -0.27510
 Alpha  occ. eigenvalues --   -0.27291  -0.26525  -0.23266
 Alpha virt. eigenvalues --   -0.12232  -0.09742  -0.07807  -0.04872  -0.03562
 Alpha virt. eigenvalues --   -0.02654  -0.01026  -0.00564   0.00202   0.00684
 Alpha virt. eigenvalues --    0.01199   0.01966   0.02342   0.02706   0.03161

 Mulliken charges:
               1
     1  C   -0.714186
     2  C    0.302749
     3  C    0.842490
     4  C   -0.433577
     5  O   -0.326923
     6  C    0.115636
     7  O   -0.324387
     8  C    0.336422
     9  C    0.421537
    10  C   -0.091808
    11  C   -0.074129
    12  C   -0.070889
    13  C   -0.811907
    14  N   -0.543992
    15  O    0.164395
    16  C    0.168387
    17  C   -0.339188
    18  C    0.313189
    19  Cl   0.285495
    20  C   -0.088936
    21  C   -0.637378
    22  C    0.106129
    23  N   -0.452081
    24  O    0.077122
    25  H    0.168692
    26  H    0.188621
    27  H    0.189980
    28  H    0.155010
    29  H    0.133769
    30  H    0.132076
    31  H    0.133815
    32  H    0.132989
    33  H    0.193010
    34  H    0.160578
    35  H    0.187290
 Sum of Mulliken charges =  -0.00000

 Dipole moment (field-independent basis, Debye):
    X=              0.0281    Y=             -1.5097    Z=             -0.8541  Tot=              1.7348
 Quadrupole moment (field-independent basis, Debye-Ang):
   XX=           -124.2260   YY=           -151.4822   ZZ=           -145.9584
   XY=             -3.4342   XZ=             -1.0265   YZ=             -0.0696

 Normal termination of Gaussian 16 at Fri Sep 19 01:24:39 2025.
