 Gaussian 16, Revision C.02,
 Gaussian 16:  ES64L-G16RevC.02  7-Dec-2021

 ----------------------------------------------------------
 # td=(50-50,nstates=3) b3lyp/6-31+g(d,p) geom=connectivity
 ----------------------------------------------------------

 -------------------
 Title Card Required
 -------------------
 Symbolic Z-matrix:
 Charge =  0 Multiplicity = 1

                         Standard orientation:
 ---------------------------------------------------------------------
 Center     Atomic      Atomic             Coordinates (Angstroms)
 Number     Number       Type             X           Y           Z
 ---------------------------------------------------------------------
      1         17           0       -4.220403   -0.623812    0.820972
      2          6           0       -3.340690   -0.306128   -0.738971
      3          6           0       -1.954066    0.173203   -0.499565
      4          7           0       -0.863880   -0.534810   -0.480945
      5          6           0        0.100968    0.419279   -0.204879
      6          7           0        1.415006    0.094874   -0.026420
      7          6           0        2.389512    1.184489    0.081787
      8          6           0        3.650430    0.664901    0.768166
      9          8           0        4.168141   -0.488077    0.110268
     10          6           0        3.213466   -1.546206    0.102812
     11          6           0        1.937375   -1.137960   -0.626959
     12          7           0       -0.367602    1.654752   -0.088346
     13          8           0       -1.761408    1.476497   -0.273972
     14          1           0       -3.310724   -1.246010   -1.286790
     15          1           0       -3.921659    0.439845   -1.280326
     16          1           0        1.948086    1.997143    0.663758
     17          1           0        2.637687    1.576638   -0.917307
     18          1           0        3.430616    0.424991    1.820639
     19          1           0        4.438663    1.421274    0.735790
     20          1           0        3.688450   -2.389262   -0.405447
     21          1           0        2.975620   -1.841186    1.137237
     22          1           0        2.158881   -0.979127   -1.694812
     23          1           0        1.180740   -1.920036   -0.544002
 ---------------------------------------------------------------------

 SCF Done:  E(RB3LYP) =  -1047.64496223     A.U. after   14 cycles

 Excitation energies and oscillator strengths:

 Excited State   1:      Triplet-A      3.3521 eV  369.87 nm  f=0.0000  <S**2>=2.000
      50 -> 54        -0.11855
      52 -> 54         0.12065
      53 -> 54         0.64424
      53 -> 55        -0.11498
 This state for optimization and/or second-order correction.
 Total Energy, E(TD-HF/TD-DFT) =  -1047.52177560
 Copying the excited state density for this state as the 1-particle RhoCI density.

 Excited State   2:      Singlet-A      4.2375 eV  292.59 nm  f=0.0162  <S**2>=0.000
      53 -> 54         0.70114

 Excited State   3:      Triplet-A      4.6585 eV  266.15 nm  f=0.0000  <S**2>=2.000
      45 -> 54         0.11926
      47 -> 54        -0.11721
      48 -> 54        -0.20270
      50 -> 54         0.54361
      52 -> 54        -0.16014
      53 -> 54         0.20652

 Excited State   4:      Triplet-A      5.1303 eV  241.67 nm  f=0.0000  <S**2>=2.000
      51 -> 54         0.67040

 Excited State   5:      Singlet-A      5.3594 eV  231.34 nm  f=0.0137  <S**2>=0.000
      52 -> 54         0.69715

 Excited State   6:      Singlet-A      5.5617 eV  222.93 nm  f=0.0059  <S**2>=0.000
      49 -> 54        -0.10744
      51 -> 54         0.68331

 The electronic state is 1-A.
 Alpha  occ. eigenvalues -- -101.56026 -19.26199 -19.17197 -14.39107 -14.38317
 Alpha  occ. eigenvalues --  -14.36457 -10.31878 -10.30062 -10.28509 -10.24964
 Alpha  occ. eigenvalues --  -10.24934 -10.23685 -10.23572  -9.47554  -7.24010
 Alpha  occ. eigenvalues --   -7.22956  -7.22931  -1.17706  -1.05584  -0.99448
 Alpha  occ. eigenvalues --   -0.94040  -0.89354  -0.85741  -0.79543  -0.74075
 Alpha  occ. eigenvalues --   -0.73437  -0.67974  -0.64045  -0.62076  -0.58683
 Alpha  occ. eigenvalues --   -0.55667  -0.51540  -0.50128  -0.49456  -0.48859
 Alpha  occ. eigenvalues --   -0.48304  -0.47730  -0.46047  -0.44794  -0.44079
 Alpha  occ. eigenvalues --   -0.43504  -0.41361  -0.38572  -0.37743  -0.36495
 Alpha  occ. eigenvalues --   -0.35777  -0.32857  -0.32553  -0.31922  -0.31326
 Alpha  occ. eigenvalues --   -0.31201  -0.27839  -0.23935
 Alpha virt. eigenvalues --   -0.06246  -0.00814   0.00608   0.01325   0.01863
 Alpha virt. eigenvalues --    0.02288   0.03196   0.03572   0.04051   0.04278
 Alpha virt. eigenvalues --    0.04998   0.05459   0.05810   0.06222   0.06944

 Mulliken charges:
               1
     1  Cl   0.067426
     2  C   -0.532351
     3  C   -0.033528
     4  N   -0.320773
     5  C    0.584659
     6  N   -0.201410
     7  C   -0.046659
     8  C   -0.114620
     9  O   -0.348142
    10  C   -0.101926
    11  C   -0.131646
    12  N   -0.568589
    13  O    0.095934
    14  H    0.221352
    15  H    0.218922
    16  H    0.171883
    17  H    0.154721
    18  H    0.137820
    19  H    0.142305
    20  H    0.141483
    21  H    0.138181
    22  H    0.149723
    23  H    0.175233
 Sum of Mulliken charges =  -0.00000

 Dipole moment (field-independent basis, Debye):
    X=              0.4663    Y=             -1.1630    Z=             -1.5027  Tot=              1.9566
 Quadrupole moment (field-independent basis, Debye-Ang):
   XX=            -87.7155   YY=            -85.6197   ZZ=            -81.2466
   XY=              2.2968   XZ=              8.4929   YZ=              1.5835

 Normal termination of Gaussian 16 at Fri Sep 19 01:27:18 2025.
