 Gaussian 16, Revision C.02,
 Gaussian 16:  ES64L-G16RevC.02  7-Dec-2021

 ----------------------------------------------------------
 # td=(50-50,nstates=3) b3lyp/6-31+g(d,p) geom=connectivity
 ----------------------------------------------------------

 -------------------
 Title Card Required
 -------------------
 Symbolic Z-matrix:
 Charge =  0 Multiplicity = 1

                         Standard orientation:
 ---------------------------------------------------------------------
 Center     Atomic      Atomic             Coordinates (Angstroms)
 Number     Number       Type             X           Y           Z
 ---------------------------------------------------------------------
      1          6           0       -7.199758   -1.702839    0.991166
      2          6           0       -5.711792   -2.068149    1.038930
      3          6           0       -4.830810   -1.112170    0.222388
      4          6           0       -3.345296   -1.493556    0.265521
      5          6           0       -2.442034   -0.583729   -0.611325
      6          6           0       -2.490111    0.878213   -0.193585
      7          6           0       -2.358489    1.271675    1.190128
      8          6           0       -2.403654    2.588197    1.504657
      9          8           0       -2.559565    3.560421    0.590418
     10          6           0       -2.702637    3.268789   -0.791084
     11          8           0       -2.843308    4.204469   -1.542171
     12          6           0       -2.657456    1.859673   -1.129197
     13          6           0       -1.017320   -1.179715   -0.711580
     14         16           0       -0.771220   -2.590510   -1.573098
     15          7           0       -0.039978   -0.514958   -0.067786
     16          6           0        1.373414   -0.893974   -0.036889
     17          6           0        2.155325   -0.280642   -1.209557
     18          6           0        3.643642   -0.618975   -1.106937
     19          7           0        4.189167   -0.155789    0.184219
     20          6           0        5.643122   -0.352037    0.255811
     21          6           0        6.194911    0.140437    1.538958
     22          7           0        6.635491    0.493086    2.551879
     23          6           0        6.339942    0.342403   -0.850987
     24          7           0        6.900719    0.855764   -1.726402
     25          6           0        3.500532   -0.806170    1.313108
     26          6           0        2.006516   -0.472675    1.293732
     27          1           0       -7.800036   -2.402153    1.582610
     28          1           0       -7.374674   -0.695687    1.387589
     29          1           0       -7.580020   -1.724800   -0.036763
     30          1           0       -5.573251   -3.092504    0.667837
     31          1           0       -5.369805   -2.072705    2.083357
     32          1           0       -4.974302   -0.087659    0.591323
     33          1           0       -5.170017   -1.111748   -0.823328
     34          1           0       -3.217621   -2.515714   -0.102744
     35          1           0       -2.985046   -1.489489    1.302931
     36          1           0       -2.831473   -0.638956   -1.632226
     37          1           0       -2.253375    0.542853    1.984291
     38          1           0       -2.325164    2.984991    2.510991
     39          1           0       -2.768970    1.631783   -2.183543
     40          1           0       -0.273700    0.370618    0.367015
     41          1           0        1.399535   -1.984788   -0.129019
     42          1           0        1.760422   -0.662021   -2.155908
     43          1           0        2.033594    0.809253   -1.204292
     44          1           0        4.185517   -0.123876   -1.916458
     45          1           0        3.790595   -1.710166   -1.225280
     46          1           0        5.925716   -1.423445    0.182406
     47          1           0        3.938929   -0.449611    2.248397
     48          1           0        3.637559   -1.904819    1.278253
     49          1           0        1.887083    0.608612    1.444335
     50          1           0        1.514930   -0.984173    2.128906
 ---------------------------------------------------------------------

 SCF Done:  E(RB3LYP) =  -1506.13248278     A.U. after   18 cycles

 Excitation energies and oscillator strengths:

 Excited State   1:      Triplet-A      2.6611 eV  465.91 nm  f=0.0000  <S**2>=2.000
      97 ->100         0.67178
      98 ->100        -0.12900
      99 ->100         0.14343
 This state for optimization and/or second-order correction.
 Total Energy, E(TD-HF/TD-DFT) =  -1506.03468925
 Copying the excited state density for this state as the 1-particle RhoCI density.

 Excited State   2:      Triplet-A      3.1062 eV  399.15 nm  f=0.0000  <S**2>=2.000
      98 ->101         0.29389
      99 ->100        -0.14187
      99 ->101         0.61825

 Excited State   3:      Triplet-A      3.1186 eV  397.57 nm  f=0.0000  <S**2>=2.000
      97 ->100        -0.13339
      98 ->101        -0.11059
      99 ->100         0.64939
      99 ->101         0.20599

 Excited State   4:      Singlet-A      3.2118 eV  386.02 nm  f=0.0309  <S**2>=0.000
      99 ->100         0.70372

 Excited State   5:      Singlet-A      3.4191 eV  362.63 nm  f=0.0005  <S**2>=0.000
      99 ->101         0.69989

 Excited State   6:      Singlet-A      3.6524 eV  339.46 nm  f=0.0012  <S**2>=0.000
      98 ->100         0.70413

 The electronic state is 1-A.
 Alpha  occ. eigenvalues --  -88.85104 -19.24985 -19.15797 -14.41180 -14.39301
 Alpha  occ. eigenvalues --  -14.38315 -14.38180 -10.34319 -10.34065 -10.30506
 Alpha  occ. eigenvalues --  -10.30484 -10.27423 -10.27281 -10.26275 -10.26085
 Alpha  occ. eigenvalues --  -10.25682 -10.25204 -10.24293 -10.23761 -10.23375
 Alpha  occ. eigenvalues --  -10.22847 -10.21781 -10.21256 -10.20176 -10.19870
 Alpha  occ. eigenvalues --  -10.18817  -7.91181  -5.87685  -5.87229  -5.86779
 Alpha  occ. eigenvalues --   -1.14404  -1.05432  -1.00117  -0.99385  -0.94620
 Alpha  occ. eigenvalues --   -0.94309  -0.88671  -0.85587  -0.82956  -0.80877
 Alpha  occ. eigenvalues --   -0.80154  -0.79929  -0.78241  -0.75108  -0.71758
 Alpha  occ. eigenvalues --   -0.69598  -0.68401  -0.68010  -0.65794  -0.62385
 Alpha  occ. eigenvalues --   -0.61304  -0.60243  -0.59816  -0.59741  -0.56712
 Alpha  occ. eigenvalues --   -0.56352  -0.55811  -0.55422  -0.52940  -0.51297
 Alpha  occ. eigenvalues --   -0.49625  -0.49325  -0.49171  -0.48997  -0.47334
 Alpha  occ. eigenvalues --   -0.47049  -0.45938  -0.45709  -0.45476  -0.44505
 Alpha  occ. eigenvalues --   -0.43352  -0.43016  -0.42583  -0.41478  -0.40855
 Alpha  occ. eigenvalues --   -0.40244  -0.39932  -0.39657  -0.39229  -0.39157
 Alpha  occ. eigenvalues --   -0.38896  -0.38385  -0.37990  -0.37803  -0.37361
 Alpha  occ. eigenvalues --   -0.37236  -0.36638  -0.36409  -0.36227  -0.35678
 Alpha  occ. eigenvalues --   -0.34897  -0.34480  -0.34019  -0.33367  -0.30011
 Alpha  occ. eigenvalues --   -0.27899  -0.26646  -0.24938  -0.22988
 Alpha virt. eigenvalues --   -0.09154  -0.05656  -0.04668  -0.03109  -0.03002
 Alpha virt. eigenvalues --   -0.02389  -0.01023  -0.00562  -0.00068   0.00015
 Alpha virt. eigenvalues --    0.00079   0.00745   0.01012   0.01358   0.01933

 Mulliken charges:
               1
     1  C   -0.672490
     2  C   -0.192416
     3  C    0.097323
     4  C   -0.635960
     5  C    1.514485
     6  C   -0.884130
     7  C   -0.112639
     8  C   -0.026523
     9  O   -0.306760
    10  C    0.279784
    11  O   -0.462999
    12  C    0.528963
    13  C   -1.346609
    14  S   -0.109780
    15  N    0.178932
    16  C   -0.713617
    17  C    0.108277
    18  C   -0.380629
    19  N    0.094934
    20  C   -0.020983
    21  C    0.309342
    22  N   -0.478219
    23  C    0.272701
    24  N   -0.467988
    25  C   -0.354561
    26  C   -0.072151
    27  H    0.147532
    28  H    0.146310
    29  H    0.149354
    30  H    0.143746
    31  H    0.135393
    32  H    0.141126
    33  H    0.137681
    34  H    0.175289
    35  H    0.121056
    36  H    0.160194
    37  H    0.139934
    38  H    0.157660
    39  H    0.149491
    40  H    0.302258
    41  H    0.176154
    42  H    0.174440
    43  H    0.161340
    44  H    0.163650
    45  H    0.146030
    46  H    0.205431
    47  H    0.161664
    48  H    0.142978
    49  H    0.159352
    50  H    0.155648
 Sum of Mulliken charges =  -0.00000

 Dipole moment (field-independent basis, Debye):
    X=             -2.9947    Y=             -4.2491    Z=              4.2555  Tot=              6.7180
 Quadrupole moment (field-independent basis, Debye-Ang):
   XX=           -197.5162   YY=           -195.1365   ZZ=           -173.7142
   XY=             -9.0190   XZ=            -11.6823   YZ=              5.2964

 Normal termination of Gaussian 16 at Thu Jul 31 17:47:33 2025.
