 Gaussian 16, Revision C.02,
 Gaussian 16:  ES64L-G16RevC.02  7-Dec-2021

 ----------------------------------------------------------
 # td=(50-50,nstates=3) b3lyp/6-31+g(d,p) geom=connectivity
 ----------------------------------------------------------

 -------------------
 Title Card Required
 -------------------
 Symbolic Z-matrix:
 Charge =  0 Multiplicity = 1

                         Standard orientation:
 ---------------------------------------------------------------------
 Center     Atomic      Atomic             Coordinates (Angstroms)
 Number     Number       Type             X           Y           Z
 ---------------------------------------------------------------------
      1          6           0        7.548892   -1.120273   -0.436088
      2          6           0        6.129531   -1.016566    0.040294
      3          6           0        5.173527   -0.292167   -0.564778
      4          6           0        3.765818   -0.142629   -0.161287
      5          6           0        2.912419    0.654870   -0.942261
      6          6           0        1.568744    0.838804   -0.607650
      7          6           0        1.021147    0.225270    0.523916
      8          6           0       -0.451167    0.365703    0.921536
      9          6           0       -1.075139    1.686327    0.459404
     10          6           0       -0.845270    2.851217    1.207536
     11          6           0       -1.366387    4.080971    0.808086
     12          6           0       -2.140647    4.196193   -0.357166
     13          6           0       -2.728861    5.525182   -0.771833
     14          6           0       -2.368403    3.033233   -1.102398
     15          6           0       -1.849119    1.797972   -0.701011
     16          6           0       -1.292003   -0.854819    0.531576
     17          6           0       -2.433905   -1.166946    1.284991
     18          6           0       -3.249123   -2.251039    0.960020
     19          6           0       -2.918413   -3.040106   -0.142516
     20         17           0       -3.936538   -4.413745   -0.563036
     21          6           0       -1.789875   -2.758713   -0.909204
     22          6           0       -0.983290   -1.669847   -0.564407
     23          6           0        1.871250   -0.570587    1.311269
     24          6           0        3.209881   -0.752203    0.981406
     25          1           0        8.251273   -0.769478    0.331473
     26          1           0        7.818889   -2.162092   -0.653422
     27          1           0        7.713770   -0.529948   -1.343005
     28          1           0        5.890547   -1.580910    0.941446
     29          1           0        5.447915    0.258429   -1.465630
     30          1           0        3.310108    1.146060   -1.827183
     31          1           0        0.948404    1.475639   -1.230488
     32          1           0       -0.463004    0.396572    2.018910
     33          1           0       -0.243365    2.794870    2.111866
     34          1           0       -1.170151    4.964599    1.411271
     35          1           0       -2.005588    6.338525   -0.649554
     36          1           0       -3.047603    5.511006   -1.818304
     37          1           0       -3.606481    5.777145   -0.163282
     38          1           0       -2.965097    3.087768   -2.009937
     39          1           0       -2.058456    0.915955   -1.298609
     40          1           0       -2.695934   -0.549447    2.140682
     41          1           0       -4.126700   -2.482630    1.553906
     42          1           0       -1.538905   -3.382875   -1.760077
     43          1           0       -0.097483   -1.464813   -1.157025
     44          1           0        1.472880   -1.058148    2.198360
     45          1           0        3.828485   -1.371631    1.623593
 ---------------------------------------------------------------------

 SCF Done:  E(RB3LYP) =  -1349.35615593     A.U. after   16 cycles

 Excitation energies and oscillator strengths:

 Excited State   1:      Triplet-A      2.7920 eV  444.07 nm  f=0.0000  <S**2>=2.000
      87 -> 89        -0.14858
      88 -> 89         0.64430
 This state for optimization and/or second-order correction.
 Total Energy, E(TD-HF/TD-DFT) =  -1349.25355092
 Copying the excited state density for this state as the 1-particle RhoCI density.

 Excited State   2:      Triplet-A      3.5894 eV  345.41 nm  f=0.0000  <S**2>=2.000
      83 -> 90        -0.29475
      83 -> 92        -0.13730
      83 -> 93         0.15089
      85 -> 91         0.11879
      86 -> 91         0.31510
      86 -> 92        -0.11366
      87 -> 89        -0.10013
      87 -> 90         0.13938
      87 -> 91        -0.28458
      87 -> 92         0.12903
      88 -> 91        -0.16956

 Excited State   3:      Triplet-A      3.6365 eV  340.94 nm  f=0.0000  <S**2>=2.000
      85 -> 90         0.18384
      85 -> 92        -0.23267
      85 -> 94         0.23052
      86 -> 91        -0.16108
      86 -> 93        -0.22058
      87 -> 91        -0.18756
      87 -> 92        -0.22544
      87 -> 93        -0.28051
      88 -> 93        -0.14049

 Excited State   4:      Singlet-A      4.4296 eV  279.90 nm  f=0.2452  <S**2>=0.000
      84 -> 89        -0.14315
      88 -> 89         0.50717
      88 -> 90        -0.40537
      88 -> 91         0.10306
      88 -> 94         0.13062

 Excited State   5:      Singlet-A      4.5767 eV  270.90 nm  f=0.3441  <S**2>=0.000
      84 -> 89         0.13300
      86 -> 89         0.10209
      87 -> 89         0.12827
      88 -> 89         0.43750
      88 -> 90         0.48235
      88 -> 92        -0.10761

 Excited State   6:      Singlet-A      4.7269 eV  262.29 nm  f=0.0471  <S**2>=0.000
      84 -> 89        -0.14123
      86 -> 89        -0.10053
      88 -> 90         0.16164
      88 -> 91         0.59943
      88 -> 92         0.18733
      88 -> 94         0.11621

 The electronic state is 1-A.
 Alpha  occ. eigenvalues -- -101.55333 -10.25769 -10.21656 -10.21242 -10.20987
 Alpha  occ. eigenvalues --  -10.20908 -10.20621 -10.20609 -10.20565 -10.20517
 Alpha  occ. eigenvalues --  -10.20434 -10.20398 -10.19926 -10.19737 -10.19678
 Alpha  occ. eigenvalues --  -10.19628 -10.19597 -10.19510 -10.19487 -10.19460
 Alpha  occ. eigenvalues --  -10.19420 -10.19386 -10.19077 -10.19017  -9.46844
 Alpha  occ. eigenvalues --   -7.23245  -7.22280  -7.22253  -0.89575  -0.87520
 Alpha  occ. eigenvalues --   -0.86145  -0.84543  -0.81441  -0.79504  -0.76644
 Alpha  occ. eigenvalues --   -0.76278  -0.75100  -0.74981  -0.74577  -0.71035
 Alpha  occ. eigenvalues --   -0.68692  -0.65884  -0.62746  -0.61900  -0.61354
 Alpha  occ. eigenvalues --   -0.60151  -0.59118  -0.57392  -0.55569  -0.52031
 Alpha  occ. eigenvalues --   -0.51487  -0.49620  -0.48614  -0.47523  -0.46939
 Alpha  occ. eigenvalues --   -0.46214  -0.45759  -0.44991  -0.44009  -0.43622
 Alpha  occ. eigenvalues --   -0.42454  -0.42321  -0.42296  -0.42184  -0.41903
 Alpha  occ. eigenvalues --   -0.41819  -0.40396  -0.39484  -0.39062  -0.38702
 Alpha  occ. eigenvalues --   -0.37867  -0.36971  -0.36509  -0.36132  -0.35434
 Alpha  occ. eigenvalues --   -0.35011  -0.34155  -0.34021  -0.33830  -0.32741
 Alpha  occ. eigenvalues --   -0.31536  -0.29535  -0.26920  -0.26017  -0.25724
 Alpha  occ. eigenvalues --   -0.24932  -0.24040  -0.22011
 Alpha virt. eigenvalues --   -0.04317  -0.03208  -0.02629  -0.01854  -0.01233
 Alpha virt. eigenvalues --   -0.00980  -0.00185   0.00817   0.00937   0.01276
 Alpha virt. eigenvalues --    0.01413   0.01820   0.01993   0.02641   0.02900

 Mulliken charges:
               1
     1  C   -0.838623
     2  C    0.194238
     3  C   -0.290162
     4  C    0.706571
     5  C   -0.348401
     6  C   -0.462677
     7  C    0.293104
     8  C    0.087482
     9  C   -0.025918
    10  C    0.298962
    11  C   -0.326295
    12  C    0.467656
    13  C   -0.615594
    14  C   -0.471846
    15  C   -0.400341
    16  C   -0.128556
    17  C    0.220616
    18  C   -0.327342
    19  C    0.214660
    20  Cl   0.205316
    21  C   -0.258727
    22  C   -0.416019
    23  C    0.148013
    24  C   -0.684890
    25  H    0.157524
    26  H    0.157782
    27  H    0.150523
    28  H    0.115484
    29  H    0.109711
    30  H    0.117961
    31  H    0.124898
    32  H    0.122953
    33  H    0.111354
    34  H    0.119174
    35  H    0.157316
    36  H    0.150651
    37  H    0.166330
    38  H    0.117733
    39  H    0.121314
    40  H    0.118830
    41  H    0.142993
    42  H    0.142383
    43  H    0.131229
    44  H    0.111291
    45  H    0.111337
 Sum of Mulliken charges =  -0.00000

 Dipole moment (field-independent basis, Debye):
    X=              1.5500    Y=              1.9539    Z=              0.4761  Tot=              2.5391
 Quadrupole moment (field-independent basis, Debye-Ang):
   XX=           -145.0372   YY=           -151.9638   ZZ=           -143.1591
   XY=            -12.1769   XZ=             -2.1625   YZ=             -2.9737

 Normal termination of Gaussian 16 at Fri Sep 19 01:06:10 2025.
