 Gaussian 16, Revision C.02,
 Gaussian 16:  ES64L-G16RevC.02  7-Dec-2021

 ----------------------------------------------------------
 # td=(50-50,nstates=3) b3lyp/6-31+g(d,p) geom=connectivity
 ----------------------------------------------------------

 -------------------
 Title Card Required
 -------------------
 Symbolic Z-matrix:
 Charge =  0 Multiplicity = 1

                         Standard orientation:
 ---------------------------------------------------------------------
 Center     Atomic      Atomic             Coordinates (Angstroms)
 Number     Number       Type             X           Y           Z
 ---------------------------------------------------------------------
      1          6           0       -5.088075   -2.277872   -1.256112
      2          6           0       -4.480658   -1.105546   -0.964047
      3          6           0       -4.895733    0.128726   -1.577204
      4          7           0       -5.227103    1.130060   -2.066164
      5          6           0       -3.388398   -1.036067   -0.021556
      6          6           0       -2.530933   -0.151264    0.544152
      7          6           0       -2.268223    1.323119    0.537749
      8          6           0       -2.422713    1.913854    1.956314
      9          6           0       -0.934436    1.737153   -0.145957
     10          6           0        0.381174    1.465271    0.595817
     11          7           0        0.849389    0.071630    0.564484
     12          6           0        2.175241    0.030745    0.176279
     13          6           0        3.027057   -1.084182    0.145718
     14          6           0        4.314273   -0.881254   -0.342823
     15         17           0        5.411396   -2.251823   -0.398465
     16          6           0        4.783019    0.366844   -0.798593
     17          6           0        3.928579    1.462519   -0.750507
     18          6           0        2.632172    1.293586   -0.253628
     19          6           0        1.549544    2.255792   -0.054685
     20          8           0        1.508314    3.446256   -0.327008
     21          6           0       -1.992618   -1.336241    1.278614
     22          8           0       -1.163709   -1.651695    2.076464
     23          8           0       -2.932720   -2.218069    0.633123
     24          1           0       -4.757293   -3.193399   -0.779171
     25          1           0       -5.906874   -2.323588   -1.964679
     26          1           0       -3.054514    1.762526   -0.087259
     27          1           0       -2.220038    2.989664    1.941600
     28          1           0       -3.441060    1.764941    2.327390
     29          1           0       -1.738305    1.448618    2.672779
     30          1           0       -0.877003    1.275344   -1.137965
     31          1           0       -0.975196    2.822222   -0.298654
     32          1           0        0.311567    1.817031    1.635301
     33          1           0        0.521178   -0.573325    1.273567
     34          1           0        2.703372   -2.064127    0.477917
     35          1           0        5.796284    0.457341   -1.171366
     36          1           0        4.257426    2.442870   -1.081608
 ---------------------------------------------------------------------

 SCF Done:  E(RB3LYP) =  -1450.98997361     A.U. after   18 cycles

 Excitation energies and oscillator strengths:

 Excited State   1:      Triplet-A      1.8823 eV  658.68 nm  f=0.0000  <S**2>=2.000
      78 -> 86        -0.12914
      82 -> 86         0.64898
      84 -> 86        -0.14096
      85 -> 86        -0.20002
      82 <- 86         0.12925
 This state for optimization and/or second-order correction.
 Total Energy, E(TD-HF/TD-DFT) =  -1450.92079994
 Copying the excited state density for this state as the 1-particle RhoCI density.

 Excited State   2:      Singlet-A      2.2608 eV  548.42 nm  f=0.0155  <S**2>=0.000
      85 -> 86         0.70537

 Excited State   3:      Triplet-A      2.2628 eV  547.92 nm  f=0.0000  <S**2>=2.000
      82 -> 86         0.19068
      85 -> 86         0.67580

 Excited State   4:      Triplet-A      2.8215 eV  439.43 nm  f=0.0000  <S**2>=2.000
      83 -> 87         0.11604
      85 -> 87         0.68978

 Excited State   5:      Singlet-A      3.1530 eV  393.22 nm  f=0.0073  <S**2>=0.000
      84 -> 86         0.70389

 Excited State   6:      Singlet-A      3.3655 eV  368.40 nm  f=0.0011  <S**2>=0.000
      83 -> 86         0.70326

 The electronic state is 1-A.
 Alpha  occ. eigenvalues -- -101.56456 -19.22515 -19.21166 -19.15134 -14.38192
 Alpha  occ. eigenvalues --  -14.37415 -10.37143 -10.32067 -10.29644 -10.28653
 Alpha  occ. eigenvalues --  -10.27769 -10.27308 -10.26878 -10.26083 -10.25114
 Alpha  occ. eigenvalues --  -10.25012 -10.23943 -10.22306 -10.21830 -10.21404
 Alpha  occ. eigenvalues --  -10.21362 -10.20753 -10.20661  -9.47965  -7.24370
 Alpha  occ. eigenvalues --   -7.23411  -7.23361  -1.15188  -1.09277  -1.04867
 Alpha  occ. eigenvalues --   -0.97765  -0.94959  -0.90257  -0.87866  -0.85774
 Alpha  occ. eigenvalues --   -0.84419  -0.80278  -0.78049  -0.76103  -0.74770
 Alpha  occ. eigenvalues --   -0.71802  -0.69352  -0.67093  -0.65435  -0.63269
 Alpha  occ. eigenvalues --   -0.60129  -0.57767  -0.56522  -0.55500  -0.54343
 Alpha  occ. eigenvalues --   -0.52612  -0.51453  -0.51146  -0.50370  -0.50329
 Alpha  occ. eigenvalues --   -0.48602  -0.47460  -0.47046  -0.46127  -0.45869
 Alpha  occ. eigenvalues --   -0.44657  -0.44001  -0.43572  -0.43194  -0.42182
 Alpha  occ. eigenvalues --   -0.41590  -0.40961  -0.40211  -0.39984  -0.39315
 Alpha  occ. eigenvalues --   -0.39064  -0.38463  -0.37944  -0.37488  -0.36986
 Alpha  occ. eigenvalues --   -0.36502  -0.35446  -0.33214  -0.32915  -0.32586
 Alpha  occ. eigenvalues --   -0.31345  -0.27496  -0.26799  -0.26252  -0.23068
 Alpha virt. eigenvalues --   -0.12992  -0.07530  -0.05831  -0.02406  -0.02114
 Alpha virt. eigenvalues --   -0.00975  -0.00220   0.00249   0.00619   0.00911
 Alpha virt. eigenvalues --    0.01358   0.01592   0.01951   0.02395   0.02909

 Mulliken charges:
               1
     1  C   -0.090740
     2  C    1.245562
     3  C   -0.928724
     4  N   -0.439431
     5  C    0.222051
     6  C   -0.155995
     7  C    0.028018
     8  C   -0.551613
     9  C   -0.104917
    10  C   -0.264513
    11  N   -0.177111
    12  C   -1.874423
    13  C   -0.161195
    14  C    0.067788
    15  Cl   0.260897
    16  C   -0.251253
    17  C    0.216826
    18  C    1.029392
    19  C    0.299081
    20  O   -0.460997
    21  C    0.641458
    22  O   -0.447404
    23  O   -0.389841
    24  H    0.192910
    25  H    0.179951
    26  H    0.151578
    27  H    0.161958
    28  H    0.158082
    29  H    0.159853
    30  H    0.154669
    31  H    0.186184
    32  H    0.162353
    33  H    0.327603
    34  H    0.146710
    35  H    0.146484
    36  H    0.158750
 Sum of Mulliken charges =  -0.00000

 Dipole moment (field-independent basis, Debye):
    X=             -3.1602    Y=             -2.7462    Z=              0.7057  Tot=              4.2458
 Quadrupole moment (field-independent basis, Debye-Ang):
   XX=           -134.3728   YY=           -154.1971   ZZ=           -144.4706
   XY=             14.7827   XZ=             -2.7021   YZ=             12.2961

 Normal termination of Gaussian 16 at Thu Jul 31 17:38:57 2025.
