 Gaussian 16, Revision C.02,
 Gaussian 16:  ES64L-G16RevC.02  7-Dec-2021

 ----------------------------------------------------------
 # td=(50-50,nstates=3) b3lyp/6-31+g(d,p) geom=connectivity
 ----------------------------------------------------------

 -------------------
 Title Card Required
 -------------------
 Symbolic Z-matrix:
 Charge =  0 Multiplicity = 1

                         Standard orientation:
 ---------------------------------------------------------------------
 Center     Atomic      Atomic             Coordinates (Angstroms)
 Number     Number       Type             X           Y           Z
 ---------------------------------------------------------------------
      1          6           0        0.931867    0.245661    2.622186
      2          6           0        1.652410    0.176270    1.470815
      3          6           0        3.086837    0.448932    1.422678
      4          6           0        3.804495    0.368465    0.278445
      5          7           0        3.220727    0.042076   -0.934626
      6          6           0        4.043438   -0.226793   -2.106031
      7          6           0        1.865355   -0.235727   -0.944813
      8          6           0        1.073517   -0.173727    0.159064
      9          6           0       -0.390361   -0.458926    0.024858
     10          6           0       -0.865031   -1.785574    0.049875
     11          6           0        0.081843   -2.953757    0.219155
     12          6           0       -2.241808   -2.021726   -0.077239
     13          6           0       -3.162582   -0.982250   -0.222894
     14          6           0       -4.642876   -1.254361   -0.359938
     15          6           0       -2.678136    0.332879   -0.233112
     16          6           0       -1.314871    0.601462   -0.107901
     17          6           0       -0.783940    2.033363   -0.096144
     18          6           0       -1.797188    3.072265   -0.289957
     19          7           0       -2.588206    3.908396   -0.446117
     20          1           0        1.410123    0.509052    3.559950
     21          1           0       -0.129259    0.026688    2.646803
     22          1           0        3.598660    0.728980    2.337717
     23          1           0        4.870237    0.566483    0.246025
     24          1           0        4.899529    0.452717   -2.117049
     25          1           0        4.414352   -1.260832   -2.119752
     26          1           0        3.458667   -0.052363   -3.012431
     27          1           0        1.456043   -0.498774   -1.915077
     28          1           0        0.784204   -2.782040    1.040851
     29          1           0       -0.472773   -3.872670    0.428848
     30          1           0        0.679545   -3.126023   -0.683710
     31          1           0       -2.600517   -3.048502   -0.055377
     32          1           0       -4.856680   -2.326052   -0.315530
     33          1           0       -5.212120   -0.764013    0.438088
     34          1           0       -5.029716   -0.873290   -1.312222
     35          1           0       -3.378029    1.157488   -0.338615
     36          1           0       -0.275073    2.229241    0.856884
     37          1           0       -0.022647    2.161879   -0.874479
 ---------------------------------------------------------------------

 SCF Done:  E(RB3LYP) =  -768.166785662     A.U. after   17 cycles

 Excitation energies and oscillator strengths:

 Excited State   1:      Triplet-A      2.3959 eV  517.48 nm  f=0.0000  <S**2>=2.000
      67 -> 68         0.47280
      67 -> 69        -0.46431
      67 -> 70        -0.16022
      67 -> 76        -0.11930
 This state for optimization and/or second-order correction.
 Total Energy, E(TD-HF/TD-DFT) =  -768.078736791
 Copying the excited state density for this state as the 1-particle RhoCI density.

 Excited State   2:      Triplet-A      2.6573 eV  466.59 nm  f=0.0000  <S**2>=2.000
      67 -> 68         0.47698
      67 -> 69         0.38044
      67 -> 70         0.30681

 Excited State   3:      Singlet-A      3.3755 eV  367.31 nm  f=0.0195  <S**2>=0.000
      67 -> 68         0.64087
      67 -> 69         0.24538
      67 -> 70         0.15914

 Excited State   4:      Triplet-A      3.5856 eV  345.78 nm  f=0.0000  <S**2>=2.000
      65 -> 71        -0.37348
      66 -> 68         0.16051
      66 -> 69         0.27322
      66 -> 70        -0.38758
      66 -> 72         0.18277
      67 -> 70         0.16452

 Excited State   5:      Singlet-A      3.7294 eV  332.45 nm  f=0.0022  <S**2>=0.000
      67 -> 69        -0.32685
      67 -> 70         0.60968
      67 -> 72        -0.10131

 Excited State   6:      Singlet-A      3.9181 eV  316.44 nm  f=0.0021  <S**2>=0.000
      67 -> 70         0.13010
      67 -> 71        -0.48769
      67 -> 72         0.48834

 The electronic state is 1-A.
 Alpha  occ. eigenvalues --  -14.40283 -14.33732 -10.25080 -10.24362 -10.24283
 Alpha  occ. eigenvalues --  -10.23566 -10.23148 -10.21623 -10.20728 -10.20706
 Alpha  occ. eigenvalues --  -10.20674 -10.20537 -10.20467 -10.19844 -10.19107
 Alpha  occ. eigenvalues --  -10.19087 -10.18826 -10.18701 -10.16153  -0.99480
 Alpha  occ. eigenvalues --   -0.90706  -0.87733  -0.83568  -0.80668  -0.79869
 Alpha  occ. eigenvalues --   -0.77451  -0.75302  -0.73341  -0.70250  -0.69146
 Alpha  occ. eigenvalues --   -0.68013  -0.64163  -0.60055  -0.59608  -0.57672
 Alpha  occ. eigenvalues --   -0.53603  -0.51801  -0.51431  -0.50027  -0.48265
 Alpha  occ. eigenvalues --   -0.47535  -0.46841  -0.46458  -0.45097  -0.44636
 Alpha  occ. eigenvalues --   -0.43343  -0.42654  -0.42565  -0.41712  -0.41550
 Alpha  occ. eigenvalues --   -0.40243  -0.39762  -0.39131  -0.38728  -0.38080
 Alpha  occ. eigenvalues --   -0.36195  -0.36052  -0.34902  -0.34602  -0.33711
 Alpha  occ. eigenvalues --   -0.32616  -0.32467  -0.30931  -0.28105  -0.24955
 Alpha  occ. eigenvalues --   -0.24243  -0.18214
 Alpha virt. eigenvalues --   -0.02871  -0.02104  -0.01818  -0.01370  -0.01290
 Alpha virt. eigenvalues --    0.00435   0.00819   0.01566   0.01943   0.02492
 Alpha virt. eigenvalues --    0.02778   0.02934   0.03328   0.03730   0.03972

 Mulliken charges:
               1
     1  C   -0.482870
     2  C    0.639656
     3  C   -0.325052
     4  C    0.254394
     5  N    0.108026
     6  C   -0.176758
     7  C   -0.067194
     8  C   -1.071752
     9  C   -0.356596
    10  C    0.573066
    11  C   -0.558086
    12  C   -0.824191
    13  C    0.022388
    14  C   -0.470481
    15  C    0.038949
    16  C    0.707537
    17  C   -0.054233
    18  C   -0.167768
    19  N   -0.518691
    20  H    0.119767
    21  H    0.134826
    22  H    0.128847
    23  H    0.129669
    24  H    0.153113
    25  H    0.163825
    26  H    0.151237
    27  H    0.128551
    28  H    0.172856
    29  H    0.142316
    30  H    0.157128
    31  H    0.113445
    32  H    0.147045
    33  H    0.167670
    34  H    0.166890
    35  H    0.139629
    36  H    0.217417
    37  H    0.195422
 Sum of Mulliken charges =  -0.00000

 Dipole moment (field-independent basis, Debye):
    X=              5.0359    Y=             -3.9446    Z=             -2.3733  Tot=              6.8229
 Quadrupole moment (field-independent basis, Debye-Ang):
   XX=           -101.2357   YY=           -131.4987   ZZ=           -112.6563
   XY=             15.8642   XZ=             -8.6531   YZ=              3.8064

 Normal termination of Gaussian 16 at Thu Jul 31 17:48:08 2025.
