 Gaussian 16, Revision C.02,
 Gaussian 16:  ES64L-G16RevC.02  7-Dec-2021

 ----------------------------------------------------------
 # td=(50-50,nstates=3) b3lyp/6-31+g(d,p) geom=connectivity
 ----------------------------------------------------------

 -------------------
 Title Card Required
 -------------------
 Symbolic Z-matrix:
 Charge =  0 Multiplicity = 1

                         Standard orientation:
 ---------------------------------------------------------------------
 Center     Atomic      Atomic             Coordinates (Angstroms)
 Number     Number       Type             X           Y           Z
 ---------------------------------------------------------------------
      1          6           0        0.967636   -3.437829   -0.466712
      2          8           0        1.959785   -2.419500   -0.339807
      3          6           0        1.589570   -1.140132   -0.149429
      4          6           0        0.298220   -0.704520   -0.075840
      5          6           0       -0.049596    0.688909    0.065477
      6          6           0       -1.383905    1.071234    0.125159
      7          6           0       -1.818767    2.428924   -0.005199
      8          7           0       -2.328953    3.469122   -0.149372
      9          6           0       -2.492202    0.103672    0.331401
     10          6           0       -3.534564   -0.007898   -0.555078
     11          7           0       -3.663128    0.648589   -1.744335
     12          6           0       -4.643992   -0.991402   -0.306796
     13          8           0       -5.560863   -1.087635   -1.123759
     14          6           0       -4.590269   -1.796427    0.915164
     15          6           0       -3.600988   -1.642709    1.812103
     16          6           0       -2.492216   -0.661853    1.634189
     17          6           0        1.072054    1.632171    0.108362
     18          8           0        0.719325    2.920893    0.230623
     19          6           0        1.724281    3.939684    0.265660
     20          6           0        2.366795    1.192239    0.061903
     21          6           0        2.705118   -0.197374   -0.051202
     22          6           0        4.041429   -0.596535   -0.073460
     23          6           0        4.530868   -1.934904   -0.161294
     24          7           0        5.039301   -2.981911   -0.222248
     25          6           0        5.070083    0.393089    0.010563
     26          7           0        5.892058    1.216663    0.080650
     27          1           0        1.522798   -4.364936   -0.604642
     28          1           0        0.327956   -3.252430   -1.336936
     29          1           0        0.356828   -3.501280    0.441173
     30          1           0       -0.513609   -1.407014   -0.203197
     31          1           0       -4.559738    0.522274   -2.199145
     32          1           0       -3.192699    1.528244   -1.895290
     33          1           0       -5.402201   -2.502451    1.058523
     34          1           0       -3.592576   -2.232090    2.726532
     35          1           0       -2.544284    0.057845    2.469619
     36          1           0       -1.533582   -1.175187    1.794558
     37          1           0        1.176696    4.878597    0.336446
     38          1           0        2.370901    3.815624    1.140935
     39          1           0        2.324596    3.923542   -0.650029
     40          1           0        3.180683    1.901919    0.122312
 ---------------------------------------------------------------------

 SCF Done:  E(RB3LYP) =  -1177.06559152     A.U. after   19 cycles

 Excitation energies and oscillator strengths:

 Excited State   1:      Triplet-A      0.8594 eV 1442.76 nm  f=0.0000  <S**2>=2.000
      89 -> 91         0.32813
      90 -> 91         0.66170
      89 <- 91         0.14280
      90 <- 91         0.20505
 This state for optimization and/or second-order correction.
 Total Energy, E(TD-HF/TD-DFT) =  -1177.03401093
 Copying the excited state density for this state as the 1-particle RhoCI density.

 Excited State   2:      Triplet-A      1.8281 eV  678.21 nm  f=0.0000  <S**2>=2.000
      88 -> 91         0.21893
      89 -> 91         0.60212
      90 -> 91        -0.26390

 Excited State   3:      Triplet-A      1.9897 eV  623.12 nm  f=0.0000  <S**2>=2.000
      88 -> 91         0.65729
      89 -> 91        -0.16774
      90 -> 91         0.14275

 Excited State   4:      Singlet-A      2.0392 eV  608.01 nm  f=0.2035  <S**2>=0.000
      89 -> 91        -0.37213
      90 -> 91         0.59959

 Excited State   5:      Singlet-A      2.5873 eV  479.20 nm  f=0.0013  <S**2>=0.000
      88 -> 91         0.69328
      89 -> 91         0.11217

 Excited State   6:      Singlet-A      2.9043 eV  426.89 nm  f=0.7631  <S**2>=0.000
      89 -> 91         0.55712
      90 -> 91         0.36888
      90 -> 92        -0.21083
      90 <- 91        -0.10239

 The electronic state is 1-A.
 Alpha  occ. eigenvalues --  -19.23463 -19.23262 -19.16698 -14.37525 -14.36453
 Alpha  occ. eigenvalues --  -14.36282 -14.35454 -10.31172 -10.30926 -10.30319
 Alpha  occ. eigenvalues --  -10.28661 -10.27933 -10.27799 -10.27699 -10.27493
 Alpha  occ. eigenvalues --  -10.27181 -10.26985 -10.25808 -10.25734 -10.25187
 Alpha  occ. eigenvalues --  -10.24807 -10.24265 -10.24092 -10.23847 -10.23553
 Alpha  occ. eigenvalues --  -10.22746  -1.12246  -1.12070  -1.06511  -0.95461
 Alpha  occ. eigenvalues --   -0.93922  -0.93078  -0.91924  -0.91156  -0.88202
 Alpha  occ. eigenvalues --   -0.86241  -0.82336  -0.80926  -0.78055  -0.76664
 Alpha  occ. eigenvalues --   -0.75656  -0.74810  -0.71190  -0.67419  -0.64797
 Alpha  occ. eigenvalues --   -0.63643  -0.63499  -0.60289  -0.59457  -0.57361
 Alpha  occ. eigenvalues --   -0.55966  -0.55651  -0.53903  -0.53488  -0.51503
 Alpha  occ. eigenvalues --   -0.50920  -0.50826  -0.50069  -0.49598  -0.48717
 Alpha  occ. eigenvalues --   -0.47659  -0.47489  -0.46808  -0.44945  -0.44742
 Alpha  occ. eigenvalues --   -0.44411  -0.43308  -0.42722  -0.41796  -0.41308
 Alpha  occ. eigenvalues --   -0.40078  -0.39708  -0.39295  -0.39080  -0.38776
 Alpha  occ. eigenvalues --   -0.38615  -0.38324  -0.37855  -0.36588  -0.35933
 Alpha  occ. eigenvalues --   -0.35758  -0.34576  -0.34104  -0.33634  -0.32977
 Alpha  occ. eigenvalues --   -0.30276  -0.28562  -0.26766  -0.25661  -0.23514
 Alpha virt. eigenvalues --   -0.14895  -0.09358  -0.04998  -0.03056  -0.02585
 Alpha virt. eigenvalues --   -0.02415  -0.01791  -0.01068  -0.00509  -0.00152
 Alpha virt. eigenvalues --    0.00142   0.01386   0.01462   0.02169   0.02312

 Mulliken charges:
               1
     1  C   -0.123935
     2  O   -0.335094
     3  C    0.228384
     4  C   -0.665032
     5  C   -0.241846
     6  C    0.436237
     7  C    0.149263
     8  N   -0.481629
     9  C    1.046138
    10  C    0.054258
    11  N   -0.543039
    12  C   -0.133636
    13  O   -0.490528
    14  C    0.177693
    15  C   -0.171906
    16  C   -0.785436
    17  C   -0.052164
    18  O   -0.334309
    19  C   -0.114123
    20  C   -0.832777
    21  C    0.848028
    22  C    1.362152
    23  C   -0.021137
    24  N   -0.526785
    25  C   -0.506220
    26  N   -0.477262
    27  H    0.172839
    28  H    0.156131
    29  H    0.147878
    30  H    0.136775
    31  H    0.336311
    32  H    0.296626
    33  H    0.147520
    34  H    0.144916
    35  H    0.188281
    36  H    0.166125
    37  H    0.170633
    38  H    0.159467
    39  H    0.159972
    40  H    0.151234
 Sum of Mulliken charges =  -0.00000

 Dipole moment (field-independent basis, Debye):
    X=             -3.9495    Y=             -0.5721    Z=              2.2781  Tot=              4.5951
 Quadrupole moment (field-independent basis, Debye-Ang):
   XX=           -218.5038   YY=           -152.3749   ZZ=           -144.7860
   XY=             20.5210   XZ=             -8.5436   YZ=             -5.4477

 Normal termination of Gaussian 16 at Fri Aug  8 20:39:50 2025.
