 Gaussian 16, Revision C.02,
 Gaussian 16:  ES64L-G16RevC.02  7-Dec-2021

 ----------------------------------------------------------
 # td=(50-50,nstates=3) b3lyp/6-31+g(d,p) geom=connectivity
 ----------------------------------------------------------

 -------------------
 Title Card Required
 -------------------
 Symbolic Z-matrix:
 Charge =  0 Multiplicity = 1

                         Standard orientation:
 ---------------------------------------------------------------------
 Center     Atomic      Atomic             Coordinates (Angstroms)
 Number     Number       Type             X           Y           Z
 ---------------------------------------------------------------------
      1          6           0        1.802595   -2.266992   -0.086603
      2          6           0        1.821398   -0.805528    0.300328
      3          8           0        2.385168   -0.385975    1.287122
      4          6           0        1.033233    0.148006   -0.648006
      5          6           0        1.572537    1.512306   -0.601551
      6          7           0        1.991453    2.594822   -0.595583
      7          6           0       -0.457441    0.102579   -0.290757
      8          6           0       -0.902395    0.581739    0.948895
      9          6           0       -2.257181    0.517625    1.277827
     10          6           0       -3.176921   -0.026374    0.375742
     11          6           0       -2.736534   -0.504496   -0.860240
     12          6           0       -1.380354   -0.439843   -1.192342
     13          1           0        2.183702   -2.870838    0.737833
     14          1           0        0.792527   -2.590740   -0.357476
     15          1           0        2.442058   -2.415091   -0.966150
     16          1           0        1.151440   -0.217323   -1.675184
     17          1           0       -0.190757    1.007319    1.650502
     18          1           0       -2.594176    0.894841    2.238662
     19          1           0       -4.230673   -0.072991    0.633765
     20          1           0       -3.445087   -0.922232   -1.569279
     21          1           0       -1.044163   -0.803031   -2.160338
 ---------------------------------------------------------------------

 SCF Done:  E(RB3LYP) =  -516.470163496     A.U. after   15 cycles

 Excitation energies and oscillator strengths:

 Excited State   1:      Triplet-A      3.6027 eV  344.15 nm  f=0.0000  <S**2>=2.000
      40 -> 45         0.21954
      41 -> 44        -0.28760
      42 -> 43         0.54720
      42 -> 44        -0.12393
 This state for optimization and/or second-order correction.
 Total Energy, E(TD-HF/TD-DFT) =  -516.337768329
 Copying the excited state density for this state as the 1-particle RhoCI density.

 Excited State   2:      Triplet-A      3.8088 eV  325.52 nm  f=0.0000  <S**2>=2.000
      40 -> 43         0.43885
      41 -> 44        -0.30279
      41 -> 45        -0.14061
      42 -> 43        -0.19253
      42 -> 44        -0.20918
      42 -> 45         0.30198

 Excited State   3:      Singlet-A      4.2751 eV  290.01 nm  f=0.0110  <S**2>=0.000
      40 -> 43        -0.35094
      40 -> 45         0.12039
      42 -> 43         0.55708
      42 -> 45        -0.16957

 Excited State   4:      Triplet-A      4.5229 eV  274.13 nm  f=0.0000  <S**2>=2.000
      40 -> 44        -0.15148
      41 -> 43         0.50333
      41 -> 45         0.30635
      42 -> 44        -0.32896

 Excited State   5:      Singlet-A      5.0723 eV  244.44 nm  f=0.0054  <S**2>=0.000
      40 -> 43         0.11371
      40 -> 44         0.12427
      41 -> 43         0.55234
      41 -> 44        -0.11697
      42 -> 43         0.13525
      42 -> 44         0.33798
      42 -> 45         0.10255

 Excited State   6:      Singlet-A      5.3800 eV  230.46 nm  f=0.0428  <S**2>=0.000
      40 -> 43         0.55067
      40 -> 45        -0.14297
      41 -> 43        -0.15542
      42 -> 43         0.34849

 The electronic state is 1-A.
 Alpha  occ. eigenvalues --  -19.17770 -14.34783 -10.31606 -10.26662 -10.24067
 Alpha  occ. eigenvalues --  -10.23820 -10.22211 -10.21886 -10.21808 -10.21747
 Alpha  occ. eigenvalues --  -10.21710 -10.21666  -1.07815  -0.91718  -0.88774
 Alpha  occ. eigenvalues --   -0.83179  -0.77306  -0.77199  -0.74140  -0.63502
 Alpha  occ. eigenvalues --   -0.62290  -0.59034  -0.54922  -0.52224  -0.50293
 Alpha  occ. eigenvalues --   -0.49398  -0.46816  -0.46629  -0.44866  -0.44597
 Alpha  occ. eigenvalues --   -0.43705  -0.42306  -0.39194  -0.38901  -0.37789
 Alpha  occ. eigenvalues --   -0.37093  -0.36698  -0.34033  -0.33783  -0.29189
 Alpha  occ. eigenvalues --   -0.27834  -0.26818
 Alpha virt. eigenvalues --   -0.06002  -0.03860  -0.03040  -0.01476   0.00139
 Alpha virt. eigenvalues --    0.00844   0.01742   0.02200   0.02450   0.03222
 Alpha virt. eigenvalues --    0.03834   0.04353   0.04858   0.05558   0.06139

 Mulliken charges:
               1
     1  C   -0.508133
     2  C    0.297463
     3  O   -0.359959
     4  C    0.485185
     5  C   -0.243486
     6  N   -0.437225
     7  C    0.062924
     8  C   -0.010489
     9  C   -0.080890
    10  C   -0.089618
    11  C   -0.190546
    12  C   -0.314720
    13  H    0.187486
    14  H    0.178904
    15  H    0.179137
    16  H    0.171363
    17  H    0.152385
    18  H    0.136405
    19  H    0.131948
    20  H    0.132705
    21  H    0.119161
 Sum of Mulliken charges =  -0.00000

 Dipole moment (field-independent basis, Debye):
    X=             -3.4271    Y=             -4.7516    Z=             -1.8035  Tot=              6.1299
 Quadrupole moment (field-independent basis, Debye-Ang):
   XX=            -72.1491   YY=            -79.1217   ZZ=            -68.2847
   XY=             -9.6930   XZ=             -5.6004   YZ=              5.9186

 Normal termination of Gaussian 16 at Thu Jul 31 17:42:09 2025.
