 Gaussian 16, Revision C.02,
 Gaussian 16:  ES64L-G16RevC.02  7-Dec-2021

 ----------------------------------------------------------
 # td=(50-50,nstates=3) b3lyp/6-31+g(d,p) geom=connectivity
 ----------------------------------------------------------

 -------------------
 Title Card Required
 -------------------
 Symbolic Z-matrix:
 Charge =  0 Multiplicity = 1

                         Standard orientation:
 ---------------------------------------------------------------------
 Center     Atomic      Atomic             Coordinates (Angstroms)
 Number     Number       Type             X           Y           Z
 ---------------------------------------------------------------------
      1          6           0       -4.479714    1.959927   -0.013377
      2          8           0       -3.859102    0.673494   -0.032965
      3          6           0       -2.516212    0.581159   -0.026161
      4          6           0       -1.662578    1.641847   -0.000852
      5          6           0       -0.221488    1.498815    0.018491
      6          6           0        0.584179    2.619801    0.113241
      7          6           0        2.094304    2.683235    0.189629
      8          6           0       -0.054814    3.898279    0.159467
      9          7           0       -0.538328    4.959546    0.198470
     10          6           0        0.294000    0.120868   -0.048441
     11          8           0        1.629598   -0.013678   -0.101765
     12          6           0        2.226021   -1.398066   -0.043389
     13          7           0        3.620770   -1.370937   -0.094562
     14          6           0        4.359926   -0.789344    1.032480
     15          6           0        3.963559   -1.362655    2.393969
     16          6           0        4.261331   -1.263173   -1.410272
     17          6           0        4.367208    0.143417   -2.017670
     18          6           0       -0.575501   -0.940511   -0.061859
     19          6           0       -2.001751   -0.787639   -0.043478
     20          6           0       -2.827990   -1.911385   -0.051219
     21          6           0       -4.255857   -1.923104   -0.044345
     22          7           0       -5.413920   -2.054986   -0.038993
     23          6           0       -2.238194   -3.213971   -0.067122
     24          7           0       -1.733812   -4.265029   -0.080823
     25          1           0       -5.550984    1.762353   -0.024659
     26          1           0       -4.209997    2.508515    0.896084
     27          1           0       -4.197075    2.541857   -0.897861
     28          1           0       -2.060825    2.647258    0.023361
     29          1           0        2.475468    2.050764    0.994943
     30          1           0        2.552129    2.329085   -0.738088
     31          1           0        2.414990    3.711534    0.365048
     32          1           0        1.857119   -1.827394    0.891368
     33          1           0        1.827580   -1.948338   -0.899597
     34          1           0        4.266027    0.308099    1.055764
     35          1           0        5.418161   -1.008110    0.851264
     36          1           0        4.643753   -0.979033    3.160926
     37          1           0        4.028021   -2.455474    2.393856
     38          1           0        2.949974   -1.075186    2.691125
     39          1           0        3.709856   -1.917309   -2.095561
     40          1           0        5.265903   -1.693029   -1.312980
     41          1           0        4.899220    0.094318   -2.974324
     42          1           0        4.922908    0.824479   -1.364559
     43          1           0        3.378087    0.573108   -2.200363
     44          1           0       -0.195834   -1.951190   -0.101090
 ---------------------------------------------------------------------

 SCF Done:  E(RB3LYP) =  -1067.36806649     A.U. after   16 cycles

 Excitation energies and oscillator strengths:

 Excited State   1:      Triplet-A      0.9684 eV 1280.33 nm  f=0.0000  <S**2>=2.000
      86 -> 87         0.73826
      86 <- 87         0.24483
 This state for optimization and/or second-order correction.
 Total Energy, E(TD-HF/TD-DFT) =  -1067.33247924
 Copying the excited state density for this state as the 1-particle RhoCI density.

 Excited State   2:      Triplet-A      1.9840 eV  624.93 nm  f=0.0000  <S**2>=2.000
      84 -> 87         0.68132
      85 -> 87         0.14495

 Excited State   3:      Singlet-A      2.6586 eV  466.35 nm  f=0.0064  <S**2>=0.000
      84 -> 87         0.62077
      85 -> 87         0.32790

 Excited State   4:      Triplet-A      2.6587 eV  466.34 nm  f=0.0000  <S**2>=2.000
      84 -> 87        -0.14768
      85 -> 87         0.69029

 Excited State   5:      Singlet-A      2.6767 eV  463.20 nm  f=0.0056  <S**2>=0.000
      84 -> 87        -0.32383
      85 -> 87         0.62229

 Excited State   6:      Singlet-A      2.9812 eV  415.88 nm  f=0.8528  <S**2>=0.000
      86 -> 87         0.70889
      86 <- 87        -0.14822

 The electronic state is 1-A.
 Alpha  occ. eigenvalues --  -19.22176 -19.21865 -14.37031 -14.36463 -14.35798
 Alpha  occ. eigenvalues --  -14.34660 -10.30560 -10.30011 -10.29846 -10.27784
 Alpha  occ. eigenvalues --  -10.27391 -10.27152 -10.26546 -10.26308 -10.25458
 Alpha  occ. eigenvalues --  -10.25208 -10.24436 -10.24276 -10.24212 -10.22890
 Alpha  occ. eigenvalues --  -10.22768 -10.22054 -10.20414 -10.20009  -1.10983
 Alpha  occ. eigenvalues --   -1.10188  -0.96453  -0.93407  -0.93182  -0.91189
 Alpha  occ. eigenvalues --   -0.90069  -0.86431  -0.81774  -0.79643  -0.79245
 Alpha  occ. eigenvalues --   -0.77513  -0.76420  -0.73245  -0.71288  -0.69244
 Alpha  occ. eigenvalues --   -0.66629  -0.65793  -0.63048  -0.60991  -0.58828
 Alpha  occ. eigenvalues --   -0.57826  -0.56412  -0.54197  -0.53854  -0.52415
 Alpha  occ. eigenvalues --   -0.51042  -0.50176  -0.49321  -0.48223  -0.47914
 Alpha  occ. eigenvalues --   -0.46897  -0.46256  -0.45542  -0.45168  -0.44337
 Alpha  occ. eigenvalues --   -0.43490  -0.42922  -0.42622  -0.41421  -0.41122
 Alpha  occ. eigenvalues --   -0.40670  -0.39706  -0.39321  -0.38604  -0.38533
 Alpha  occ. eigenvalues --   -0.38374  -0.38105  -0.37981  -0.37458  -0.37141
 Alpha  occ. eigenvalues --   -0.36668  -0.36540  -0.35393  -0.35118  -0.35070
 Alpha  occ. eigenvalues --   -0.33483  -0.32948  -0.32141  -0.25901  -0.25635
 Alpha  occ. eigenvalues --   -0.23650
 Alpha virt. eigenvalues --   -0.13772  -0.04443  -0.02113  -0.01595  -0.01156
 Alpha virt. eigenvalues --   -0.00710  -0.00496  -0.00061   0.00534   0.00833
 Alpha virt. eigenvalues --    0.01475   0.01923   0.02253   0.02509   0.02800

 Mulliken charges:
               1
     1  C   -0.118023
     2  O   -0.338593
     3  C   -0.145561
     4  C   -0.770973
     5  C    0.286016
     6  C    1.407492
     7  C   -0.610923
     8  C   -0.350445
     9  N   -0.498459
    10  C    0.251039
    11  O   -0.330693
    12  C   -0.580952
    13  N    0.067141
    14  C    0.016196
    15  C   -0.590490
    16  C    0.060814
    17  C   -0.410299
    18  C   -0.379790
    19  C    0.093206
    20  C    1.556297
    21  C   -0.102353
    22  N   -0.526444
    23  C   -0.539014
    24  N   -0.489139
    25  H    0.169222
    26  H    0.155686
    27  H    0.155233
    28  H    0.146815
    29  H    0.176445
    30  H    0.181522
    31  H    0.164688
    32  H    0.144488
    33  H    0.138220
    34  H    0.141237
    35  H    0.135286
    36  H    0.154071
    37  H    0.167418
    38  H    0.149782
    39  H    0.133149
    40  H    0.139099
    41  H    0.147125
    42  H    0.145939
    43  H    0.153985
    44  H    0.144540
 Sum of Mulliken charges =  -0.00000

 Dipole moment (field-independent basis, Debye):
    X=              7.6553    Y=              2.7685    Z=             -0.0377  Tot=              8.1406
 Quadrupole moment (field-independent basis, Debye-Ang):
   XX=           -146.6200   YY=           -185.8742   ZZ=           -140.4643
   XY=            -21.9914   XZ=              0.1035   YZ=             -0.6418

 Normal termination of Gaussian 16 at Thu Jul 31 17:51:26 2025.
