 Gaussian 16, Revision C.02,
 Gaussian 16:  ES64L-G16RevC.02  7-Dec-2021

 ----------------------------------------------------------
 # td=(50-50,nstates=3) b3lyp/6-31+g(d,p) geom=connectivity
 ----------------------------------------------------------

 -------------------
 Title Card Required
 -------------------
 Symbolic Z-matrix:
 Charge =  0 Multiplicity = 1

                         Standard orientation:
 ---------------------------------------------------------------------
 Center     Atomic      Atomic             Coordinates (Angstroms)
 Number     Number       Type             X           Y           Z
 ---------------------------------------------------------------------
      1          6           0       -4.793082   -1.315083    0.218982
      2          6           0       -3.295053   -1.177631    0.075851
      3          6           0       -2.443321   -2.248932    0.379713
      4          6           0       -1.055153   -2.156522    0.253482
      5          6           0       -0.194355   -3.348547    0.608386
      6          6           0       -0.470611   -0.940117   -0.183324
      7          6           0        1.009719   -0.854560   -0.384495
      8          6           0        1.824771   -0.403594    0.590517
      9          7           0        3.206386   -0.278677    0.457141
     10          6           0        4.023269   -0.087381    1.646877
     11          6           0        3.784227   -0.797392   -0.701392
     12          6           0        3.066560   -1.267805   -1.735888
     13          6           0        1.555438   -1.274644   -1.744381
     14          6           0       -1.317546    0.145361   -0.487929
     15          6           0       -0.767111    1.471264   -0.976447
     16          6           0       -0.998807    2.642841    0.039397
     17          6           0       -0.306916    2.431611    1.323920
     18          7           0        0.227547    2.250764    2.337463
     19          6           0       -0.599576    3.934895   -0.548038
     20          7           0       -0.305202    4.936757   -1.053978
     21          6           0       -2.709428    0.010532   -0.358762
     22          1           0       -5.169379   -2.177177   -0.343157
     23          1           0       -5.078694   -1.462894    1.267308
     24          1           0       -5.313093   -0.424312   -0.145222
     25          1           0       -2.876503   -3.186461    0.722904
     26          1           0       -0.813855   -4.221345    0.832732
     27          1           0        0.487075   -3.616555   -0.205537
     28          1           0        0.429890   -3.141089    1.484170
     29          1           0        1.430905   -0.085144    1.549891
     30          1           0        3.517913    0.601780    2.327863
     31          1           0        4.219179   -1.029844    2.181042
     32          1           0        4.981295    0.357638    1.364163
     33          1           0        4.869389   -0.783336   -0.717271
     34          1           0        3.595932   -1.635130   -2.609515
     35          1           0        1.163069   -0.605359   -2.533062
     36          1           0        1.168931   -2.269951   -2.020109
     37          1           0        0.302214    1.403389   -1.181256
     38          1           0       -1.268286    1.773549   -1.902342
     39          1           0       -2.071699    2.705026    0.263434
     40          1           0       -3.353549    0.849529   -0.619221
 ---------------------------------------------------------------------

 SCF Done:  E(RB3LYP) =  -861.604006957     A.U. after   17 cycles

 Excitation energies and oscillator strengths:

 Excited State   1:      Triplet-A      2.8278 eV  438.44 nm  f=0.0000  <S**2>=2.000
      74 -> 75         0.21074
      74 -> 78        -0.12195
      74 -> 79         0.59672
      74 -> 80        -0.21111
 This state for optimization and/or second-order correction.
 Total Energy, E(TD-HF/TD-DFT) =  -861.500085534
 Copying the excited state density for this state as the 1-particle RhoCI density.

 Excited State   2:      Singlet-A      3.4877 eV  355.49 nm  f=0.0011  <S**2>=0.000
      74 -> 75         0.69851

 Excited State   3:      Triplet-A      3.4963 eV  354.61 nm  f=0.0000  <S**2>=2.000
      74 -> 75         0.66055
      74 -> 79        -0.18498

 Excited State   4:      Triplet-A      3.5633 eV  347.95 nm  f=0.0000  <S**2>=2.000
      72 -> 75         0.45640
      73 -> 76        -0.13054
      73 -> 77         0.38506
      73 -> 78        -0.23481
      74 -> 77         0.13241

 Excited State   5:      Singlet-A      3.7754 eV  328.40 nm  f=0.0013  <S**2>=0.000
      74 -> 76        -0.23310
      74 -> 77         0.60094
      74 -> 78        -0.26623

 Excited State   6:      Singlet-A      3.8638 eV  320.88 nm  f=0.0003  <S**2>=0.000
      74 -> 76         0.66045
      74 -> 77         0.23337

 The electronic state is 1-A.
 Alpha  occ. eigenvalues --  -14.37300 -14.36702 -14.36700 -10.30238 -10.26095
 Alpha  occ. eigenvalues --  -10.25972 -10.23433 -10.22831 -10.22398 -10.22292
 Alpha  occ. eigenvalues --  -10.21652 -10.21226 -10.21096 -10.20887 -10.20157
 Alpha  occ. eigenvalues --  -10.20004 -10.19659 -10.19657 -10.19290 -10.18881
 Alpha  occ. eigenvalues --  -10.18441  -0.96772  -0.94263  -0.92877  -0.88327
 Alpha  occ. eigenvalues --   -0.85270  -0.82042  -0.79067  -0.78557  -0.76290
 Alpha  occ. eigenvalues --   -0.72010  -0.71059  -0.69496  -0.69170  -0.64044
 Alpha  occ. eigenvalues --   -0.62609  -0.60457  -0.58262  -0.57972  -0.54459
 Alpha  occ. eigenvalues --   -0.52723  -0.50823  -0.49358  -0.48740  -0.47331
 Alpha  occ. eigenvalues --   -0.46870  -0.45989  -0.44586  -0.43509  -0.43222
 Alpha  occ. eigenvalues --   -0.42786  -0.42336  -0.41918  -0.41764  -0.41316
 Alpha  occ. eigenvalues --   -0.40574  -0.40370  -0.39424  -0.38802  -0.38015
 Alpha  occ. eigenvalues --   -0.37364  -0.37155  -0.36673  -0.36101  -0.35494
 Alpha  occ. eigenvalues --   -0.35258  -0.35086  -0.34382  -0.34070  -0.33097
 Alpha  occ. eigenvalues --   -0.26801  -0.25549  -0.24797  -0.18567
 Alpha virt. eigenvalues --   -0.03338  -0.02262  -0.02191  -0.01836  -0.00961
 Alpha virt. eigenvalues --   -0.00136   0.00402   0.00763   0.00971   0.01334
 Alpha virt. eigenvalues --    0.01663   0.02342   0.02471   0.02993   0.03098

 Mulliken charges:
               1
     1  C   -0.506802
     2  C    0.417223
     3  C   -0.390756
     4  C    0.789385
     5  C   -0.523899
     6  C   -0.024522
     7  C   -0.002129
     8  C   -0.770468
     9  N    0.066074
    10  C   -0.206312
    11  C    0.068146
    12  C   -0.162331
    13  C   -0.334021
    14  C    0.241272
    15  C   -0.526081
    16  C    0.404059
    17  C    0.134055
    18  N   -0.409672
    19  C   -0.100342
    20  N   -0.445497
    21  C   -0.572438
    22  H    0.164103
    23  H    0.167971
    24  H    0.147038
    25  H    0.118117
    26  H    0.139600
    27  H    0.159110
    28  H    0.167684
    29  H    0.134929
    30  H    0.159686
    31  H    0.150103
    32  H    0.145058
    33  H    0.120159
    34  H    0.120021
    35  H    0.138969
    36  H    0.136548
    37  H    0.190936
    38  H    0.174087
    39  H    0.221344
    40  H    0.099590
 Sum of Mulliken charges =  -0.00000

 Dipole moment (field-independent basis, Debye):
    X=             -1.1927    Y=             -3.8525    Z=             -0.2334  Tot=              4.0397
 Quadrupole moment (field-independent basis, Debye-Ang):
   XX=           -106.9061   YY=           -146.8763   ZZ=           -132.7362
   XY=             -3.6276   XZ=              2.2024   YZ=              0.2866

 Normal termination of Gaussian 16 at Thu Jul 31 17:57:38 2025.
