 Gaussian 16, Revision C.02,
 Gaussian 16:  ES64L-G16RevC.02  7-Dec-2021

 ----------------------------------------------------------
 # td=(50-50,nstates=3) b3lyp/6-31+g(d,p) geom=connectivity
 ----------------------------------------------------------

 -------------------
 Title Card Required
 -------------------
 Symbolic Z-matrix:
 Charge =  0 Multiplicity = 1

                         Standard orientation:
 ---------------------------------------------------------------------
 Center     Atomic      Atomic             Coordinates (Angstroms)
 Number     Number       Type             X           Y           Z
 ---------------------------------------------------------------------
      1          6           0        6.828477   -0.774806    0.209187
      2         14           0        5.327831    0.270802   -0.263234
      3          6           0        5.193690    1.799185    0.833152
      4          6           0        5.402027    0.753746   -2.087749
      5          6           0        3.803553   -0.756829   -0.006679
      6          6           0        2.777285   -1.404066    0.171333
      7         14           0        1.216771   -2.334571    0.445841
      8          6           0        1.461679   -4.127991   -0.078274
      9          6           0        0.691891   -2.254495    2.252062
     10          7           0        0.030348   -1.474253   -0.524638
     11          6           0       -1.408503   -1.595255   -0.428706
     12          6           0       -2.136985   -0.262148   -0.236801
     13          6           0       -1.405404    0.882474   -0.122261
     14          6           0       -1.995995    2.189286    0.022292
     15          6           0       -1.207446    3.329304    0.134501
     16          6           0       -1.781125    4.629359    0.276656
     17          7           0       -2.256503    5.686653    0.392218
     18          6           0        0.219150    3.273271    0.108262
     19          7           0        1.383052    3.235689    0.082990
     20          6           0       -3.437660    2.276581    0.037258
     21          6           0       -4.188294    1.155267   -0.068692
     22          6           0       -3.600836   -0.170151   -0.195275
     23          6           0       -4.478338   -1.252086   -0.253293
     24          6           0       -4.128428   -2.634621   -0.330483
     25          7           0       -3.927865   -3.781316   -0.380657
     26          6           0       -5.896659   -1.049663   -0.216213
     27          7           0       -7.051646   -0.901679   -0.189618
     28          1           0        6.895351   -1.676131   -0.409661
     29          1           0        7.754480   -0.203217    0.074529
     30          1           0        6.777024   -1.089818    1.257020
     31          1           0        4.292899    2.375139    0.596399
     32          1           0        6.063519    2.452326    0.693908
     33          1           0        5.147327    1.521811    1.891947
     34          1           0        6.294274    1.358030   -2.290252
     35          1           0        5.440702   -0.131248   -2.732090
     36          1           0        4.524694    1.343625   -2.373834
     37          1           0        0.532766   -4.700287    0.030876
     38          1           0        2.230799   -4.614429    0.532870
     39          1           0        1.776421   -4.191539   -1.125516
     40          1           0        0.572276   -1.219668    2.587938
     41          1           0       -0.249382   -2.788152    2.428593
     42          1           0        1.454613   -2.726634    2.881074
     43          1           0        0.348739   -1.142442   -1.428417
     44          1           0       -1.828790   -2.089882   -1.315262
     45          1           0       -1.658576   -2.250232    0.412912
     46          1           0       -0.324531    0.789043   -0.138187
     47          1           0       -3.913828    3.246222    0.136185
     48          1           0       -5.269372    1.236434   -0.051255
 ---------------------------------------------------------------------

 SCF Done:  E(RB3LYP) =  -1627.53441172     A.U. after   18 cycles

 Excitation energies and oscillator strengths:

 Excited State   1:      Triplet-A      0.6706 eV 1848.74 nm  f=0.0000  <S**2>=2.000
     100 ->103        -0.15770
     101 ->103         0.76228
     101 <-103         0.34536
 This state for optimization and/or second-order correction.
 Total Energy, E(TD-HF/TD-DFT) =  -1627.50976613
 Copying the excited state density for this state as the 1-particle RhoCI density.

 Excited State   2:      Triplet-A      1.5383 eV  805.97 nm  f=0.0000  <S**2>=2.000
     102 ->103         0.69938

 Excited State   3:      Singlet-A      1.5630 eV  793.26 nm  f=0.0017  <S**2>=0.000
     102 ->103         0.70304

 Excited State   4:      Triplet-A      2.1454 eV  577.92 nm  f=0.0000  <S**2>=2.000
     100 ->103         0.68968
     101 ->103         0.14713

 Excited State   5:      Singlet-A      2.1461 eV  577.73 nm  f=0.0001  <S**2>=0.000
     100 ->103         0.68780
     101 ->103         0.15941

 Excited State   6:      Singlet-A      2.2947 eV  540.30 nm  f=0.0001  <S**2>=0.000
      99 ->103         0.70364

 The electronic state is 1-A.
 Alpha  occ. eigenvalues --  -66.16705 -66.14173 -14.38949 -14.38767 -14.38654
 Alpha  occ. eigenvalues --  -14.38629 -14.34142 -10.31929 -10.31498 -10.29946
 Alpha  occ. eigenvalues --  -10.29215 -10.28207 -10.27946 -10.27783 -10.27767
 Alpha  occ. eigenvalues --  -10.26982 -10.26401 -10.26322 -10.26271 -10.25171
 Alpha  occ. eigenvalues --  -10.18216 -10.18044 -10.17596 -10.17581 -10.17143
 Alpha  occ. eigenvalues --  -10.17113 -10.16635  -5.30716  -5.28477  -3.66749
 Alpha  occ. eigenvalues --   -3.66631  -3.66487  -3.64485  -3.64305  -3.64292
 Alpha  occ. eigenvalues --   -0.96744  -0.96206  -0.94847  -0.94572  -0.93704
 Alpha  occ. eigenvalues --   -0.90931  -0.89075  -0.84211  -0.82209  -0.77052
 Alpha  occ. eigenvalues --   -0.74635  -0.72654  -0.71708  -0.71203  -0.69413
 Alpha  occ. eigenvalues --   -0.68552  -0.68546  -0.68237  -0.66386  -0.63773
 Alpha  occ. eigenvalues --   -0.59807  -0.58981  -0.56984  -0.55502  -0.52745
 Alpha  occ. eigenvalues --   -0.51516  -0.49633  -0.49018  -0.48323  -0.47283
 Alpha  occ. eigenvalues --   -0.45843  -0.45274  -0.44679  -0.42883  -0.42515
 Alpha  occ. eigenvalues --   -0.42362  -0.41419  -0.41411  -0.41307  -0.41100
 Alpha  occ. eigenvalues --   -0.40868  -0.40841  -0.40679  -0.40535  -0.40457
 Alpha  occ. eigenvalues --   -0.40070  -0.39876  -0.39534  -0.39223  -0.38605
 Alpha  occ. eigenvalues --   -0.38527  -0.38369  -0.38308  -0.38192  -0.37072
 Alpha  occ. eigenvalues --   -0.37071  -0.36639  -0.34725  -0.34624  -0.33680
 Alpha  occ. eigenvalues --   -0.31995  -0.31845  -0.31574  -0.27965  -0.27416
 Alpha  occ. eigenvalues --   -0.27231  -0.26021
 Alpha virt. eigenvalues --   -0.18005  -0.07117  -0.06359  -0.04822  -0.03930
 Alpha virt. eigenvalues --   -0.02571  -0.01999  -0.01215  -0.01124  -0.00675
 Alpha virt. eigenvalues --   -0.00231  -0.00070   0.00035   0.00472   0.00694

 Mulliken charges:
               1
     1  C   -0.669630
     2  Si   1.206064
     3  C   -0.691724
     4  C   -0.666212
     5  C   -0.623063
     6  C   -0.813340
     7  Si   1.598327
     8  C   -0.634063
     9  C   -0.677653
    10  N   -0.643646
    11  C   -0.673919
    12  C    0.396897
    13  C   -0.177643
    14  C    0.968507
    15  C    0.667081
    16  C   -0.193809
    17  N   -0.461560
    18  C   -0.641646
    19  N   -0.436132
    20  C   -0.339352
    21  C   -0.315886
    22  C    1.306035
    23  C    0.424303
    24  C   -0.294061
    25  N   -0.469014
    26  C   -0.369337
    27  N   -0.447826
    28  H    0.164739
    29  H    0.161688
    30  H    0.164882
    31  H    0.191166
    32  H    0.160122
    33  H    0.162317
    34  H    0.162446
    35  H    0.163614
    36  H    0.168752
    37  H    0.163452
    38  H    0.165920
    39  H    0.164543
    40  H    0.171603
    41  H    0.159973
    42  H    0.172896
    43  H    0.315885
    44  H    0.168563
    45  H    0.161558
    46  H    0.186805
    47  H    0.171779
    48  H    0.169598
 Sum of Mulliken charges =  -0.00000

 Dipole moment (field-independent basis, Debye):
    X=              2.2078    Y=             -1.0471    Z=             -0.5306  Tot=              2.5004
 Quadrupole moment (field-independent basis, Debye-Ang):
   XX=           -200.5054   YY=           -211.4494   ZZ=           -172.7669
   XY=            -10.4266   XZ=             -1.2186   YZ=             -4.2074

 Normal termination of Gaussian 16 at Thu Jul 31 12:05:09 2025.
