 Gaussian 16, Revision C.02,
 Gaussian 16:  ES64L-G16RevC.02  7-Dec-2021

 ----------------------------------------------------------
 # td=(50-50,nstates=3) b3lyp/6-31+g(d,p) geom=connectivity
 ----------------------------------------------------------

 -------------------
 Title Card Required
 -------------------
 Symbolic Z-matrix:
 Charge =  0 Multiplicity = 1

                         Standard orientation:
 ---------------------------------------------------------------------
 Center     Atomic      Atomic             Coordinates (Angstroms)
 Number     Number       Type             X           Y           Z
 ---------------------------------------------------------------------
      1          6           0       -4.755252    1.830452    0.012599
      2          6           0       -4.304358    0.371289    0.258245
      3          6           0       -4.333073    0.068489    1.775536
      4          6           0       -5.267707   -0.590643   -0.462136
      5          6           0       -2.885071    0.197619   -0.290075
      6          6           0       -1.739655    0.831429    0.362826
      7          6           0       -0.535854    0.188576    0.370900
      8          6           0       -0.274253   -1.021529   -0.424181
      9          7           0        0.850105   -1.674735   -0.479912
     10          6           0        2.077219   -1.149238   -0.089083
     11          6           0        2.989753   -2.017586    0.546631
     12          6           0        4.244795   -1.557588    0.931799
     13          6           0        4.647953   -0.245656    0.655222
     14          6           0        3.756601    0.594087   -0.012579
     15         17           0        4.253916    2.238896   -0.404998
     16          6           0        2.483736    0.170382   -0.384556
     17          6           0       -1.348632   -1.365456   -1.398357
     18          6           0       -2.494543   -0.711098   -1.202792
     19          1           0       -4.765655    2.063187   -1.057088
     20          1           0       -5.767975    1.978966    0.404900
     21          1           0       -4.097275    2.550876    0.510354
     22          1           0       -3.991486   -0.951782    1.979104
     23          1           0       -5.356068    0.166738    2.155290
     24          1           0       -3.699644    0.756727    2.343493
     25          1           0       -6.286121   -0.457486   -0.081230
     26          1           0       -5.277943   -0.406578   -1.541148
     27          1           0       -4.979129   -1.634525   -0.301264
     28          1           0       -1.898440    1.676034    1.029402
     29          1           0        0.244877    0.521623    1.046654
     30          1           0        2.682776   -3.040492    0.736580
     31          1           0        4.931348   -2.228249    1.440010
     32          1           0        5.633305    0.110175    0.933435
     33          1           0        1.826285    0.836059   -0.931738
     34          1           0       -1.036124   -1.840521   -2.322392
 ---------------------------------------------------------------------

 SCF Done:  E(RB3LYP) =  -1134.21354133     A.U. after   17 cycles

 Excitation energies and oscillator strengths:

 Excited State   1:      Triplet-A      -0.8764 eV    -1414.69 nm  f=-0.0000  <S**2>=2.000
      67 -> 69        -0.12269
      68 -> 69         0.70122
      68 <- 69         0.17065
 This state for optimization and/or second-order correction.
 Total Energy, E(TD-HF/TD-DFT) =  -1134.24574873
 Copying the excited state density for this state as the 1-particle RhoCI density.

 Excited State   2:      Triplet-A      1.7983 eV  689.44 nm  f=0.0000  <S**2>=2.000
      66 -> 69        -0.10210
      67 -> 69         0.66970
      68 -> 69         0.11197

 Excited State   3:      Singlet-A      2.0875 eV  593.92 nm  f=0.0274  <S**2>=0.000
      67 -> 69        -0.46203
      68 -> 69         0.52989
      68 <- 69        -0.11246

 Excited State   4:      Triplet-A      2.3428 eV  529.22 nm  f=0.0000  <S**2>=2.000
      65 -> 69         0.65695
      66 -> 69         0.13529

 Excited State   5:      Singlet-A      2.4521 eV  505.62 nm  f=0.2284  <S**2>=0.000
      67 -> 69         0.52145
      68 -> 69         0.46354

 Excited State   6:      Singlet-A      3.0590 eV  405.31 nm  f=0.0075  <S**2>=0.000
      65 -> 69         0.51937
      66 -> 69         0.46290

 The electronic state is 1-A.
 Alpha  occ. eigenvalues -- -101.55643 -14.35119 -10.26464 -10.26349 -10.24546
 Alpha  occ. eigenvalues --  -10.22829 -10.22789 -10.22636 -10.22008 -10.21514
 Alpha  occ. eigenvalues --  -10.21426 -10.21226 -10.21204 -10.21091 -10.20398
 Alpha  occ. eigenvalues --  -10.19152 -10.19141 -10.18519  -9.47148  -7.23552
 Alpha  occ. eigenvalues --   -7.22585  -7.22557  -0.95451  -0.89539  -0.87698
 Alpha  occ. eigenvalues --   -0.84052  -0.82216  -0.77223  -0.76192  -0.74789
 Alpha  occ. eigenvalues --   -0.71833  -0.70062  -0.69853  -0.64632  -0.61941
 Alpha  occ. eigenvalues --   -0.61364  -0.58498  -0.56309  -0.53211  -0.51086
 Alpha  occ. eigenvalues --   -0.49415  -0.48896  -0.48044  -0.46022  -0.45486
 Alpha  occ. eigenvalues --   -0.45189  -0.44066  -0.43899  -0.43449  -0.41397
 Alpha  occ. eigenvalues --   -0.40784  -0.40493  -0.39275  -0.38635  -0.38276
 Alpha  occ. eigenvalues --   -0.37828  -0.37218  -0.35530  -0.35063  -0.34470
 Alpha  occ. eigenvalues --   -0.34084  -0.32057  -0.31028  -0.30362  -0.27806
 Alpha  occ. eigenvalues --   -0.25985  -0.23805  -0.21604
 Alpha virt. eigenvalues --   -0.12340  -0.03752  -0.02958  -0.01803  -0.00571
 Alpha virt. eigenvalues --    0.00315   0.00719   0.01311   0.01761   0.02106
 Alpha virt. eigenvalues --    0.02358   0.02976   0.03376   0.03848   0.04007

 Mulliken charges:
               1
     1  C   -0.439263
     2  C    0.372676
     3  C   -0.516861
     4  C   -0.497520
     5  C    0.447815
     6  C    0.022927
     7  C    0.168296
     8  C   -0.536631
     9  N   -0.005087
    10  C   -0.697652
    11  C   -0.120960
    12  C   -0.113265
    13  C   -0.183016
    14  C    0.119406
    15  Cl   0.204344
    16  C    0.242306
    17  C   -0.134291
    18  C   -0.683190
    19  H    0.157477
    20  H    0.150895
    21  H    0.142381
    22  H    0.158327
    23  H    0.149879
    24  H    0.143006
    25  H    0.145531
    26  H    0.160931
    27  H    0.159891
    28  H    0.125042
    29  H    0.145349
    30  H    0.135016
    31  H    0.134004
    32  H    0.143643
    33  H    0.148886
    34  H    0.149710
 Sum of Mulliken charges =  -0.00000

 Dipole moment (field-independent basis, Debye):
    X=             -1.9778    Y=              0.4176    Z=              1.8562  Tot=              2.7444
 Quadrupole moment (field-independent basis, Debye-Ang):
   XX=           -106.7334   YY=           -118.3143   ZZ=           -115.8788
   XY=             -8.4567   XZ=              1.8030   YZ=             -0.8715

 Normal termination of Gaussian 16 at Fri Sep 19 00:47:59 2025.
