 Gaussian 16, Revision C.02,
 Gaussian 16:  ES64L-G16RevC.02  7-Dec-2021

 ----------------------------------------------------------
 # td=(50-50,nstates=3) b3lyp/6-31+g(d,p) geom=connectivity
 ----------------------------------------------------------

 -------------------
 Title Card Required
 -------------------
 Symbolic Z-matrix:
 Charge =  0 Multiplicity = 1

                         Standard orientation:
 ---------------------------------------------------------------------
 Center     Atomic      Atomic             Coordinates (Angstroms)
 Number     Number       Type             X           Y           Z
 ---------------------------------------------------------------------
      1          6           0        0.485266   -2.633373    1.249593
      2          6           0       -0.296766   -1.316051    1.062736
      3          6           0       -0.186043   -0.509313    2.372216
      4          6           0        0.242582   -0.572566   -0.203082
      5          7           0        1.666129   -0.238546   -0.178347
      6          6           0        2.297899    0.900458    0.295672
      7          6           0        1.595327    1.967533    0.880728
      8          7           0        1.021831    2.866733    1.358098
      9          6           0        3.668872    0.771359    0.003714
     10          6           0        4.817442    1.570993    0.224449
     11          6           0        6.031177    1.098891   -0.230564
     12          6           0        6.151206   -0.152946   -0.906661
     13          6           0        5.051767   -0.953159   -1.138030
     14          6           0        3.815012   -0.469901   -0.670716
     15          7           0        2.580514   -1.056779   -0.784994
     16          8           0        2.261760   -2.142911   -1.353831
     17          7           0       -1.686680   -1.721560    0.811829
     18          6           0       -2.719775   -1.060471    0.451963
     19          6           0       -3.990725   -1.908828    0.310761
     20         16           0       -5.118810   -1.065864   -0.867067
     21          6           0       -4.246876    0.458673   -0.639789
     22          6           0       -4.706206    1.686936   -1.124915
     23          6           0       -3.968741    2.839965   -0.861166
     24          6           0       -2.790182    2.769427   -0.108184
     25          6           0       -2.329984    1.539063    0.358259
     26          6           0       -3.037127    0.355537    0.085099
     27          1           0        0.418823   -3.256469    0.356002
     28          1           0        1.542628   -2.446006    1.461523
     29          1           0        0.054548   -3.183816    2.090429
     30          1           0       -0.716099    0.442574    2.348138
     31          1           0        0.861798   -0.311254    2.617142
     32          1           0       -0.608992   -1.106545    3.185385
     33          1           0        0.108568   -1.225317   -1.068530
     34          1           0       -0.286885    0.361636   -0.380390
     35          1           0        4.737437    2.524471    0.736053
     36          1           0        6.925558    1.693806   -0.072629
     37          1           0        7.130702   -0.476436   -1.243950
     38          1           0        5.111321   -1.906432   -1.650223
     39          1           0       -3.743052   -2.909393   -0.039856
     40          1           0       -4.491697   -1.982280    1.282358
     41          1           0       -5.634898    1.740407   -1.684941
     42          1           0       -4.323138    3.799155   -1.227305
     43          1           0       -2.229103    3.668994    0.122927
     44          1           0       -1.427944    1.527728    0.952998
 ---------------------------------------------------------------------

 SCF Done:  E(RB3LYP) =  -1465.33625354     A.U. after   17 cycles

 Excitation energies and oscillator strengths:

 Excited State   1:      Triplet-A      1.5176 eV  816.96 nm  f=0.0000  <S**2>=2.000
      95 -> 96         0.70815
      95 <- 96         0.16560
 This state for optimization and/or second-order correction.
 Total Energy, E(TD-HF/TD-DFT) =  -1465.28048180
 Copying the excited state density for this state as the 1-particle RhoCI density.

 Excited State   2:      Triplet-A      2.8041 eV  442.16 nm  f=0.0000  <S**2>=2.000
      92 -> 97         0.22112
      94 -> 96        -0.23817
      94 -> 97         0.59520
      94 -> 99         0.13285

 Excited State   3:      Singlet-A      3.1777 eV  390.17 nm  f=0.0063  <S**2>=0.000
      94 -> 96         0.69805

 Excited State   4:      Triplet-A      3.2063 eV  386.69 nm  f=0.0000  <S**2>=2.000
      92 -> 97         0.14646
      93 -> 96         0.16528
      93 -> 97        -0.42400
      94 -> 96         0.46264
      94 -> 97         0.11980

 Excited State   5:      Singlet-A      3.2283 eV  384.05 nm  f=0.1157  <S**2>=0.000
      95 -> 96         0.68531
      95 -> 98         0.10623

 Excited State   6:      Singlet-A      3.4854 eV  355.72 nm  f=0.0449  <S**2>=0.000
      93 -> 97         0.19869
      94 -> 97         0.64236
      95 -> 97         0.16537

 The electronic state is 1-A.
 Alpha  occ. eigenvalues --  -88.90031 -19.16298 -14.52705 -14.46907 -14.36217
 Alpha  occ. eigenvalues --  -14.34035 -10.28231 -10.26707 -10.25895 -10.25746
 Alpha  occ. eigenvalues --  -10.25743 -10.25463 -10.24550 -10.24156 -10.23114
 Alpha  occ. eigenvalues --  -10.22768 -10.22730 -10.22425 -10.22398 -10.22266
 Alpha  occ. eigenvalues --  -10.21667 -10.21614 -10.21367 -10.20758 -10.19244
 Alpha  occ. eigenvalues --  -10.17661  -7.96018  -5.92510  -5.92181  -5.91523
 Alpha  occ. eigenvalues --   -1.17254  -1.03064  -0.94430  -0.92767  -0.90971
 Alpha  occ. eigenvalues --   -0.88926  -0.85358  -0.83470  -0.82206  -0.79874
 Alpha  occ. eigenvalues --   -0.77588  -0.77294  -0.74550  -0.73886  -0.70003
 Alpha  occ. eigenvalues --   -0.69154  -0.68255  -0.65340  -0.64299  -0.63967
 Alpha  occ. eigenvalues --   -0.61146  -0.60053  -0.58146  -0.56075  -0.55339
 Alpha  occ. eigenvalues --   -0.54552  -0.52379  -0.50348  -0.50205  -0.49071
 Alpha  occ. eigenvalues --   -0.48432  -0.47539  -0.47308  -0.46817  -0.46647
 Alpha  occ. eigenvalues --   -0.46078  -0.45399  -0.45326  -0.43309  -0.41844
 Alpha  occ. eigenvalues --   -0.41172  -0.40612  -0.40008  -0.39370  -0.39115
 Alpha  occ. eigenvalues --   -0.38919  -0.38608  -0.38535  -0.38195  -0.37975
 Alpha  occ. eigenvalues --   -0.37525  -0.36755  -0.35957  -0.35455  -0.34696
 Alpha  occ. eigenvalues --   -0.33557  -0.32173  -0.30478  -0.29609  -0.29156
 Alpha  occ. eigenvalues --   -0.28671  -0.26803  -0.24997  -0.22286  -0.21512
 Alpha virt. eigenvalues --   -0.09073  -0.06841  -0.03199  -0.02876  -0.01582
 Alpha virt. eigenvalues --   -0.01298  -0.00843  -0.00511   0.00137   0.01123
 Alpha virt. eigenvalues --    0.01238   0.01597   0.02080   0.02308   0.02666

 Mulliken charges:
               1
     1  C   -0.143327
     2  C   -0.881731
     3  C   -0.234226
     4  C   -0.446983
     5  N    0.046224
     6  C    1.026984
     7  C   -0.424313
     8  N   -0.509929
     9  C    1.972501
    10  C   -0.653450
    11  C   -0.171084
    12  C   -0.224089
    13  C   -0.671739
    14  C   -0.955050
    15  N   -0.164056
    16  O    0.080411
    17  N    0.210201
    18  C   -0.402250
    19  C   -0.797000
    20  S    0.048278
    21  C   -0.602234
    22  C    0.045544
    23  C   -0.170353
    24  C   -0.458781
    25  C   -0.038684
    26  C    1.685662
    27  H    0.179496
    28  H    0.142795
    29  H    0.153375
    30  H    0.154044
    31  H    0.159033
    32  H    0.156891
    33  H    0.201034
    34  H    0.157244
    35  H    0.149775
    36  H    0.134674
    37  H    0.136012
    38  H    0.160671
    39  H    0.204030
    40  H    0.205195
    41  H    0.136150
    42  H    0.133999
    43  H    0.144936
    44  H    0.124118
 Sum of Mulliken charges =  -0.00000

 Dipole moment (field-independent basis, Debye):
    X=              1.7102    Y=              1.0677    Z=              0.1624  Tot=              2.0227
 Quadrupole moment (field-independent basis, Debye-Ang):
   XX=           -136.8882   YY=           -168.0596   ZZ=           -165.2956
   XY=              0.0985   XZ=              0.0505   YZ=             -9.1949

 Normal termination of Gaussian 16 at Thu Jul 31 12:32:59 2025.
