 Gaussian 16, Revision C.02,
 Gaussian 16:  ES64L-G16RevC.02  7-Dec-2021

 ----------------------------------------------------------
 # td=(50-50,nstates=3) b3lyp/6-31+g(d,p) geom=connectivity
 ----------------------------------------------------------

 -------------------
 Title Card Required
 -------------------
 Symbolic Z-matrix:
 Charge =  0 Multiplicity = 1

                         Standard orientation:
 ---------------------------------------------------------------------
 Center     Atomic      Atomic             Coordinates (Angstroms)
 Number     Number       Type             X           Y           Z
 ---------------------------------------------------------------------
      1          6           0        0.955261    3.192536   -0.131613
      2          6           0        0.067989    1.997308   -0.000166
      3          6           0        0.487801    0.756204    0.502377
      4          6           0        1.903345    0.529070    1.040947
      5          8           0        2.127867    0.872794    2.184242
      6          6           0        2.966279    0.004990    0.087568
      7          6           0        2.515532   -1.193492   -0.779702
      8          6           0        3.623760   -1.604233   -1.762689
      9          6           0        4.944183   -1.905318   -1.037860
     10          6           0        5.386287   -0.717512   -0.169815
     11          6           0        4.288168   -0.289288    0.816176
     12          7           0       -0.352564   -0.292697    0.636984
     13          8           0        0.053779   -1.414195    1.121264
     14          6           0       -1.683781   -0.136381    0.237980
     15          6           0       -2.578422   -1.213717    0.367532
     16          6           0       -3.885242   -1.031957   -0.037317
     17         17           0       -5.026447   -2.350732    0.107666
     18          6           0       -4.333461    0.198620   -0.569639
     19          6           0       -3.454238    1.255194   -0.693771
     20          6           0       -2.115044    1.098914   -0.288707
     21          7           0       -1.219366    2.166513   -0.407143
     22          8           0       -1.619361    3.288685   -0.889787
     23          1           0        1.952786    2.995036    0.259748
     24          1           0        1.019732    3.502329   -1.180267
     25          1           0        0.517367    4.036331    0.411493
     26          1           0        3.132043    0.850538   -0.607485
     27          1           0        2.263922   -2.032570   -0.122714
     28          1           0        1.601662   -0.945040   -1.332160
     29          1           0        3.295673   -2.479060   -2.336708
     30          1           0        3.785598   -0.795417   -2.490825
     31          1           0        4.811396   -2.790614   -0.399637
     32          1           0        5.726199   -2.157271   -1.764390
     33          1           0        6.299162   -0.968291    0.383417
     34          1           0        5.641735    0.131575   -0.821181
     35          1           0        4.111456   -1.088096    1.548253
     36          1           0        4.603160    0.587755    1.389920
     37          1           0       -2.212587   -2.144909    0.780186
     38          1           0       -5.367811    0.304987   -0.876159
     39          1           0       -3.757159    2.214558   -1.094275
 ---------------------------------------------------------------------

 SCF Done:  E(RB3LYP) =  -1415.26621513     A.U. after   17 cycles

 Excitation energies and oscillator strengths:

 Excited State   1:      Triplet-A      1.0124 eV 1224.66 nm  f=0.0000  <S**2>=2.000
      84 -> 85         0.74003
      84 -> 88        -0.16470
      84 <- 85         0.27984
 This state for optimization and/or second-order correction.
 Total Energy, E(TD-HF/TD-DFT) =  -1415.22901034
 Copying the excited state density for this state as the 1-particle RhoCI density.

 Excited State   2:      Singlet-A      3.1136 eV  398.20 nm  f=0.1071  <S**2>=0.000
      84 -> 85         0.67973
      84 -> 88         0.18432
      84 <- 85        -0.10384

 Excited State   3:      Triplet-A      3.1395 eV  394.91 nm  f=0.0000  <S**2>=2.000
      78 -> 85         0.17463
      83 -> 85        -0.13351
      84 -> 86         0.65462

 Excited State   4:      Triplet-A      3.2466 eV  381.88 nm  f=0.0000  <S**2>=2.000
      80 -> 85        -0.37473
      81 -> 85        -0.14507
      82 -> 85        -0.24767
      83 -> 85         0.49675

 Excited State   5:      Singlet-A      3.4963 eV  354.62 nm  f=0.0008  <S**2>=0.000
      80 -> 85        -0.31555
      82 -> 85        -0.10018
      83 -> 85         0.55981
      84 -> 86         0.24411

 Excited State   6:      Singlet-A      3.5520 eV  349.05 nm  f=0.0268  <S**2>=0.000
      80 -> 85         0.17136
      82 -> 85         0.29634
      83 -> 85        -0.10770
      84 -> 86         0.59085

 The electronic state is 1-A.
 Alpha  occ. eigenvalues -- -101.57794 -19.17827 -19.15874 -19.15842 -14.51216
 Alpha  occ. eigenvalues --  -14.50843 -10.31392 -10.29249 -10.28573 -10.28516
 Alpha  occ. eigenvalues --  -10.28256 -10.28077 -10.24374 -10.24061 -10.24041
 Alpha  occ. eigenvalues --  -10.21857 -10.21775 -10.19736 -10.19322 -10.19209
 Alpha  occ. eigenvalues --  -10.19134 -10.18961  -9.49290  -7.25712  -7.24726
 Alpha  occ. eigenvalues --   -7.24679  -1.14520  -1.13275  -1.07606  -0.95497
 Alpha  occ. eigenvalues --   -0.92268  -0.87918  -0.86887  -0.84917  -0.81877
 Alpha  occ. eigenvalues --   -0.80780  -0.77263  -0.75336  -0.74707  -0.72647
 Alpha  occ. eigenvalues --   -0.67050  -0.65594  -0.64278  -0.62290  -0.62257
 Alpha  occ. eigenvalues --   -0.59268  -0.56988  -0.55542  -0.53659  -0.52953
 Alpha  occ. eigenvalues --   -0.50697  -0.50302  -0.49305  -0.48857  -0.48024
 Alpha  occ. eigenvalues --   -0.47842  -0.47567  -0.46232  -0.45536  -0.44719
 Alpha  occ. eigenvalues --   -0.44519  -0.43794  -0.42717  -0.42404  -0.41846
 Alpha  occ. eigenvalues --   -0.41533  -0.40297  -0.39893  -0.39030  -0.38212
 Alpha  occ. eigenvalues --   -0.35928  -0.35603  -0.35401  -0.33936  -0.33338
 Alpha  occ. eigenvalues --   -0.32560  -0.31377  -0.30541  -0.30302  -0.28916
 Alpha  occ. eigenvalues --   -0.28660  -0.28419  -0.27534  -0.22590
 Alpha virt. eigenvalues --   -0.10983  -0.06683  -0.05487  -0.03368  -0.01116
 Alpha virt. eigenvalues --   -0.00667   0.00060   0.00535   0.01224   0.01770
 Alpha virt. eigenvalues --    0.02129   0.02392   0.02797   0.03239   0.04112

 Mulliken charges:
               1
     1  C   -0.724262
     2  C    0.485148
     3  C    0.536974
     4  C   -0.402175
     5  O   -0.329700
     6  C    0.068314
     7  C   -0.066657
     8  C   -0.371990
     9  C   -0.305425
    10  C   -0.241241
    11  C   -0.355542
    12  N   -0.508091
    13  O    0.135529
    14  C    0.237775
    15  C   -0.465456
    16  C    0.262266
    17  Cl   0.276981
    18  C    0.006274
    19  C   -0.523017
    20  C    0.021079
    21  N   -0.487015
    22  O    0.067176
    23  H    0.154366
    24  H    0.187107
    25  H    0.195372
    26  H    0.154676
    27  H    0.184746
    28  H    0.132589
    29  H    0.140474
    30  H    0.134413
    31  H    0.141072
    32  H    0.135079
    33  H    0.139659
    34  H    0.135410
    35  H    0.159247
    36  H    0.153797
    37  H    0.191603
    38  H    0.158733
    39  H    0.184714
 Sum of Mulliken charges =  -0.00000

 Dipole moment (field-independent basis, Debye):
    X=              0.5906    Y=              0.1131    Z=             -2.8440  Tot=              2.9068
 Quadrupole moment (field-independent basis, Debye-Ang):
   XX=           -124.3118   YY=           -145.6947   ZZ=           -146.5392
   XY=              1.5102   XZ=             -4.8902   YZ=              2.7500

 Normal termination of Gaussian 16 at Fri Sep 19 01:58:27 2025.
