 Gaussian 16, Revision C.02,
 Gaussian 16:  ES64L-G16RevC.02  7-Dec-2021

 ----------------------------------------------------------
 # td=(50-50,nstates=3) b3lyp/6-31+g(d,p) geom=connectivity
 ----------------------------------------------------------

 -------------------
 Title Card Required
 -------------------
 Symbolic Z-matrix:
 Charge =  0 Multiplicity = 1

                         Standard orientation:
 ---------------------------------------------------------------------
 Center     Atomic      Atomic             Coordinates (Angstroms)
 Number     Number       Type             X           Y           Z
 ---------------------------------------------------------------------
      1          6           0       -2.415349    2.515624   -1.379751
      2          7           0       -1.894491    2.063041   -0.084604
      3          6           0       -0.592716    2.579123    0.349401
      4          8           0       -0.181874    3.710581    0.397388
      5          6           0       -0.098198    1.202733    0.582244
      6          6           0        1.141596    0.686795    1.265441
      7          6           0        0.800477   -0.225509    2.371816
      8          7           0        0.521499   -0.935815    3.247373
      9          6           0        2.181437    0.091378    0.297324
     10          6           0        2.611119   -1.236242    0.374114
     11          6           0        3.562416   -1.721887   -0.530416
     12          6           0        4.092228   -0.885028   -1.512866
     13          6           0        3.668396    0.446301   -1.587925
     14          6           0        2.719037    0.931385   -0.688803
     15          6           0       -1.294399    0.744659    0.087633
     16          6           0       -1.960964   -0.492260   -0.170037
     17          6           0       -3.321084   -0.673175   -0.379422
     18          6           0       -3.678986   -2.029948   -0.570587
     19          6           0       -2.592562   -2.873017   -0.515086
     20         16           0       -1.119525   -2.027932   -0.220997
     21          1           0       -3.420910    2.122733   -1.543511
     22          1           0       -2.475944    3.605478   -1.344065
     23          1           0       -1.774036    2.222267   -2.224901
     24          1           0        1.604697    1.565808    1.736404
     25          1           0        2.213408   -1.893773    1.141070
     26          1           0        3.888598   -2.755448   -0.459357
     27          1           0        4.832327   -1.262557   -2.212213
     28          1           0        4.079846    1.108392   -2.344239
     29          1           0        2.394697    1.967002   -0.751099
     30          1           0       -4.027393    0.147479   -0.363981
     31          1           0       -4.692545   -2.373194   -0.740164
     32          1           0       -2.579114   -3.948091   -0.634964
 ---------------------------------------------------------------------

 SCF Done:  E(RB3LYP) =  -1199.81153634     A.U. after   17 cycles

 Excitation energies and oscillator strengths:

 Excited State   1:      Triplet-A      1.9923 eV  622.31 nm  f=0.0000  <S**2>=2.000
      70 -> 74         0.11875
      73 -> 74         0.68744
 This state for optimization and/or second-order correction.
 Total Energy, E(TD-HF/TD-DFT) =  -1199.73831947
 Copying the excited state density for this state as the 1-particle RhoCI density.

 Excited State   2:      Singlet-A      2.9333 eV  422.67 nm  f=0.0656  <S**2>=0.000
      70 -> 74        -0.16173
      72 -> 74         0.14771
      73 -> 74         0.66467

 Excited State   3:      Triplet-A      3.0742 eV  403.31 nm  f=0.0000  <S**2>=2.000
      69 -> 74         0.13554
      70 -> 74         0.54033
      72 -> 74        -0.35087
      73 -> 74        -0.10955
      73 -> 77         0.14129

 Excited State   4:      Triplet-A      3.5854 eV  345.81 nm  f=0.0000  <S**2>=2.000
      68 -> 74         0.15654
      69 -> 74         0.65451
      69 -> 77         0.10625
      72 -> 74         0.12318

 Excited State   5:      Singlet-A      3.8042 eV  325.91 nm  f=0.0496  <S**2>=0.000
      68 -> 74         0.21593
      72 -> 74         0.65183
      73 -> 74        -0.14438

 Excited State   6:      Singlet-A      4.0453 eV  306.49 nm  f=0.0008  <S**2>=0.000
      68 -> 74        -0.13140
      71 -> 74         0.68914

 The electronic state is 1-A.
 Alpha  occ. eigenvalues --  -88.94577 -19.16922 -14.37230 -14.34907 -10.31571
 Alpha  occ. eigenvalues --  -10.28145 -10.26729 -10.25829 -10.25320 -10.24210
 Alpha  occ. eigenvalues --  -10.23368 -10.22934 -10.22745 -10.22682 -10.22452
 Alpha  occ. eigenvalues --  -10.20923 -10.20872 -10.20862 -10.20804 -10.20744
 Alpha  occ. eigenvalues --   -8.00440  -5.96863  -5.96483  -5.96168  -1.07555
 Alpha  occ. eigenvalues --   -0.98919  -0.91967  -0.91425  -0.87907  -0.83528
 Alpha  occ. eigenvalues --   -0.79603  -0.77652  -0.76927  -0.76241  -0.73981
 Alpha  occ. eigenvalues --   -0.67071  -0.66085  -0.62662  -0.61192  -0.59207
 Alpha  occ. eigenvalues --   -0.56688  -0.54652  -0.53703  -0.53606  -0.52268
 Alpha  occ. eigenvalues --   -0.49179  -0.48171  -0.47488  -0.47172  -0.45556
 Alpha  occ. eigenvalues --   -0.45097  -0.44555  -0.43549  -0.43288  -0.42758
 Alpha  occ. eigenvalues --   -0.41722  -0.41466  -0.40184  -0.39395  -0.37893
 Alpha  occ. eigenvalues --   -0.37522  -0.37337  -0.36954  -0.35940  -0.34360
 Alpha  occ. eigenvalues --   -0.34269  -0.33717  -0.29081  -0.28468  -0.27177
 Alpha  occ. eigenvalues --   -0.26915  -0.26425  -0.23349
 Alpha virt. eigenvalues --   -0.09956  -0.03391  -0.02597  -0.01987  -0.01316
 Alpha virt. eigenvalues --   -0.00661   0.00073   0.00751   0.01407   0.01525
 Alpha virt. eigenvalues --    0.01862   0.02103   0.02191   0.02906   0.03369

 Mulliken charges:
               1
     1  C   -0.288941
     2  N   -0.225468
     3  C    0.367509
     4  O   -0.460021
     5  C   -0.544748
     6  C    1.118753
     7  C   -0.740349
     8  N   -0.284693
     9  C   -0.069371
    10  C    0.048010
    11  C   -0.243019
    12  C   -0.102262
    13  C   -0.314970
    14  C    0.001718
    15  C    0.303315
    16  C   -0.095780
    17  C    0.123672
    18  C   -0.209329
    19  C   -0.068552
    20  S   -0.087317
    21  H    0.140557
    22  H    0.173664
    23  H    0.144483
    24  H    0.202791
    25  H    0.131511
    26  H    0.127884
    27  H    0.127541
    28  H    0.130727
    29  H    0.134652
    30  H    0.144955
    31  H    0.145865
    32  H    0.167212
 Sum of Mulliken charges =  -0.00000

 Dipole moment (field-independent basis, Debye):
    X=             -1.5845    Y=             -2.7823    Z=             -4.8135  Tot=              5.7811
 Quadrupole moment (field-independent basis, Debye-Ang):
   XX=           -106.1038   YY=           -125.9502   ZZ=           -135.7945
   XY=              3.3221   XZ=              1.2622   YZ=              2.0578

 Normal termination of Gaussian 16 at Thu Jul 31 12:44:35 2025.
