 Gaussian 16, Revision C.02,
 Gaussian 16:  ES64L-G16RevC.02  7-Dec-2021

 ----------------------------------------------------------
 # td=(50-50,nstates=3) b3lyp/6-31+g(d,p) geom=connectivity
 ----------------------------------------------------------

 -------------------
 Title Card Required
 -------------------
 Symbolic Z-matrix:
 Charge =  0 Multiplicity = 1

                         Standard orientation:
 ---------------------------------------------------------------------
 Center     Atomic      Atomic             Coordinates (Angstroms)
 Number     Number       Type             X           Y           Z
 ---------------------------------------------------------------------
      1          6           0       -1.499116    5.020157    0.093958
      2          6           0       -1.639433    3.515951    0.039373
      3          6           0       -2.876232    2.921159   -0.246441
      4          6           0       -3.035984    1.534358   -0.298725
      5          6           0       -4.406608    0.956023   -0.577695
      6          6           0       -1.919673    0.691140   -0.063250
      7          6           0       -2.089587   -0.794519   -0.144021
      8          6           0       -2.312907   -1.525568    0.964749
      9          7           0       -2.453016   -2.918480    0.979050
     10          6           0       -3.080571   -3.544792    2.133092
     11          6           0       -2.533353   -3.554245   -0.261122
     12          6           0       -2.321044   -2.923903   -1.428812
     13          6           0       -1.970801   -1.456468   -1.510810
     14          6           0       -0.665593    1.274989    0.218872
     15          6           0        0.587380    0.451296    0.454185
     16          6           0        1.550590    0.458840   -0.763890
     17          6           0        2.805489   -0.348816   -0.521133
     18          6           0        2.865999   -1.695092   -0.919803
     19          6           0        3.992446   -2.485814   -0.693973
     20          6           0        5.106727   -1.938448   -0.053916
     21          6           0        5.082888   -0.604847    0.355010
     22          6           0        3.942670    0.166204    0.121129
     23         17           0        3.975452    1.850670    0.659795
     24          6           0       -0.552483    2.674473    0.272092
     25          1           0       -2.206288    5.461678    0.805839
     26          1           0       -0.490250    5.315154    0.396747
     27          1           0       -1.700112    5.473983   -0.884049
     28          1           0       -3.742548    3.556250   -0.422860
     29          1           0       -5.129018    1.752217   -0.779033
     30          1           0       -4.400708    0.282684   -1.441702
     31          1           0       -4.774434    0.370771    0.272157
     32          1           0       -2.378604   -1.054171    1.941087
     33          1           0       -2.678927   -3.105859    3.050514
     34          1           0       -4.175730   -3.426327    2.139127
     35          1           0       -2.846849   -4.613019    2.140366
     36          1           0       -2.768618   -4.613129   -0.217148
     37          1           0       -2.379360   -3.500632   -2.346902
     38          1           0       -0.948099   -1.318952   -1.905962
     39          1           0       -2.613769   -0.940131   -2.241863
     40          1           0        1.124251    0.852539    1.321692
     41          1           0        0.326800   -0.582962    0.690892
     42          1           0        1.026301    0.045767   -1.632245
     43          1           0        1.809303    1.492412   -1.012354
     44          1           0        2.001924   -2.123028   -1.421665
     45          1           0        4.000780   -3.521751   -1.019353
     46          1           0        5.992565   -2.540115    0.125951
     47          1           0        5.938604   -0.159147    0.850475
     48          1           0        0.416396    3.111273    0.507213
 ---------------------------------------------------------------------

 SCF Done:  E(RB3LYP) =  -1367.79244348     A.U. after   17 cycles

 Excitation energies and oscillator strengths:

 Excited State   1:      Triplet-A      2.8464 eV  435.59 nm  f=0.0000  <S**2>=2.000
      90 -> 93         0.50938
      90 -> 94        -0.28822
      90 -> 96         0.29170
      90 -> 97        -0.12032
 This state for optimization and/or second-order correction.
 Total Energy, E(TD-HF/TD-DFT) =  -1367.68784135
 Copying the excited state density for this state as the 1-particle RhoCI density.

 Excited State   2:      Triplet-A      3.5756 eV  346.75 nm  f=0.0000  <S**2>=2.000
      88 -> 91        -0.13003
      88 -> 92         0.13248
      88 -> 93        -0.25316
      88 -> 96         0.29775
      89 -> 92        -0.11150
      89 -> 94         0.40402
      89 -> 95        -0.13112
      89 -> 96         0.16967
      89 -> 97        -0.11298
      90 -> 94        -0.10085

 Excited State   3:      Triplet-A      3.6464 eV  340.01 nm  f=0.0000  <S**2>=2.000
      86 -> 91         0.43603
      87 -> 92         0.48768

 Excited State   4:      Singlet-A      3.8133 eV  325.13 nm  f=0.0013  <S**2>=0.000
      90 -> 91         0.62245
      90 -> 92        -0.27549
      90 -> 93         0.17215

 Excited State   5:      Singlet-A      3.8970 eV  318.16 nm  f=0.0003  <S**2>=0.000
      90 -> 91         0.31126
      90 -> 92         0.62202

 Excited State   6:      Singlet-A      3.9900 eV  310.73 nm  f=0.0431  <S**2>=0.000
      90 -> 92         0.12790
      90 -> 93         0.61480
      90 -> 94        -0.25356
      90 -> 95         0.10597
      90 -> 96         0.12835

 The electronic state is 1-A.
 Alpha  occ. eigenvalues -- -101.55299 -14.36919 -10.25573 -10.22875 -10.22075
 Alpha  occ. eigenvalues --  -10.21757 -10.21419 -10.20730 -10.20468 -10.20276
 Alpha  occ. eigenvalues --  -10.20212 -10.19575 -10.19449 -10.19422 -10.19380
 Alpha  occ. eigenvalues --  -10.19373 -10.19131 -10.18730 -10.18587 -10.18262
 Alpha  occ. eigenvalues --  -10.18100 -10.17986 -10.17926 -10.17917  -9.46776
 Alpha  occ. eigenvalues --   -7.23170  -7.22225  -7.22193  -0.96361  -0.89446
 Alpha  occ. eigenvalues --   -0.86192  -0.83808  -0.81137  -0.80273  -0.78080
 Alpha  occ. eigenvalues --   -0.76988  -0.75539  -0.73996  -0.71755  -0.71492
 Alpha  occ. eigenvalues --   -0.68625  -0.67963  -0.64667  -0.63661  -0.61669
 Alpha  occ. eigenvalues --   -0.61341  -0.58871  -0.56549  -0.56117  -0.52211
 Alpha  occ. eigenvalues --   -0.51560  -0.49748  -0.48970  -0.48305  -0.47594
 Alpha  occ. eigenvalues --   -0.46613  -0.46012  -0.45748  -0.44039  -0.43180
 Alpha  occ. eigenvalues --   -0.43027  -0.42401  -0.42243  -0.41915  -0.41659
 Alpha  occ. eigenvalues --   -0.41023  -0.40794  -0.40593  -0.40183  -0.39361
 Alpha  occ. eigenvalues --   -0.38898  -0.37833  -0.37597  -0.36706  -0.36270
 Alpha  occ. eigenvalues --   -0.36058  -0.35336  -0.34526  -0.34077  -0.33494
 Alpha  occ. eigenvalues --   -0.32896  -0.32516  -0.31813  -0.31211  -0.26263
 Alpha  occ. eigenvalues --   -0.26002  -0.24882  -0.23386  -0.23106  -0.18194
 Alpha virt. eigenvalues --   -0.02352  -0.02165  -0.00835  -0.00581  -0.00429
 Alpha virt. eigenvalues --   -0.00157   0.00238   0.00824   0.01265   0.01503
 Alpha virt. eigenvalues --    0.02271   0.02441   0.02809   0.03008   0.03435

 Mulliken charges:
               1
     1  C   -0.555675
     2  C    0.311825
     3  C   -0.333702
     4  C    0.800025
     5  C   -0.540858
     6  C   -0.094870
     7  C   -0.068108
     8  C   -0.484551
     9  N    0.076993
    10  C   -0.179261
    11  C   -0.085027
    12  C   -0.069676
    13  C   -0.437220
    14  C    0.056258
    15  C   -0.486815
    16  C   -0.670036
    17  C   -0.242868
    18  C   -0.045941
    19  C   -0.203465
    20  C    0.106158
    21  C   -0.094121
    22  C    0.218908
    23  Cl   0.172320
    24  C   -0.478247
    25  H    0.159585
    26  H    0.147924
    27  H    0.162436
    28  H    0.112018
    29  H    0.138342
    30  H    0.153658
    31  H    0.162481
    32  H    0.111447
    33  H    0.143887
    34  H    0.150202
    35  H    0.144011
    36  H    0.117200
    37  H    0.116182
    38  H    0.132620
    39  H    0.136236
    40  H    0.156496
    41  H    0.152867
    42  H    0.132538
    43  H    0.161967
    44  H    0.122702
    45  H    0.128326
    46  H    0.129068
    47  H    0.142992
    48  H    0.112772
 Sum of Mulliken charges =  -0.00000

 Dipole moment (field-independent basis, Debye):
    X=             -1.2205    Y=             -2.3171    Z=              0.6866  Tot=              2.7074
 Quadrupole moment (field-independent basis, Debye-Ang):
   XX=           -146.6221   YY=           -139.7092   ZZ=           -150.8461
   XY=             -2.7046   XZ=             -2.5680   YZ=             -2.8105

 Normal termination of Gaussian 16 at Fri Sep 19 02:13:08 2025.
