 Gaussian 16, Revision C.02,
 Gaussian 16:  ES64L-G16RevC.02  7-Dec-2021

 ----------------------------------------------------------
 # td=(50-50,nstates=3) b3lyp/6-31+g(d,p) geom=connectivity
 ----------------------------------------------------------

 -------------------
 Title Card Required
 -------------------
 Symbolic Z-matrix:
 Charge =  0 Multiplicity = 1

                         Standard orientation:
 ---------------------------------------------------------------------
 Center     Atomic      Atomic             Coordinates (Angstroms)
 Number     Number       Type             X           Y           Z
 ---------------------------------------------------------------------
      1          6           0       -1.528436    1.162317    2.396646
      2          6           0       -1.908015    0.309711    1.236807
      3          7           0       -3.120971    0.322915    0.758527
      4          8           0       -4.124230    1.043418    1.105592
      5          6           0       -3.353553   -0.738034   -0.277669
      6          8           0       -4.222351   -0.254900   -1.244841
      7          6           0       -1.932715   -1.086409   -0.771008
      8          6           0       -1.814975   -2.567998   -1.154900
      9          6           0       -1.547563   -0.202754   -1.968667
     10          6           0       -1.092437   -0.758261    0.539661
     11          6           0        0.378206   -0.458611    0.335151
     12          6           0        1.319953   -1.449179    0.485944
     13          6           0        2.727840   -1.241254    0.275363
     14         17           0        3.784228   -2.618202    0.495227
     15          6           0        3.251446   -0.027038   -0.078111
     16          6           0        2.298904    1.009531   -0.219385
     17          6           0        0.895168    0.838164   -0.026185
     18          7           0        0.244024    1.977403   -0.212948
     19          8           0        1.191299    2.911280   -0.532215
     20          7           0        2.499430    2.298013   -0.537409
     21          8           0        3.484501    2.978304   -0.802887
     22          1           0       -0.610613    0.799880    2.866660
     23          1           0       -1.367083    2.199582    2.081239
     24          1           0       -2.341377    1.169355    3.130668
     25          1           0       -3.803748   -1.583222    0.268879
     26          1           0       -4.836584    0.336491   -0.765214
     27          1           0       -0.785738   -2.817278   -1.434795
     28          1           0       -2.114200   -3.227511   -0.332315
     29          1           0       -2.454552   -2.789793   -2.015199
     30          1           0       -2.221078   -0.407068   -2.803630
     31          1           0       -1.616321    0.862157   -1.738148
     32          1           0       -0.525195   -0.425019   -2.290354
     33          1           0       -1.119829   -1.664129    1.166099
     34          1           0        1.001765   -2.444377    0.778958
     35          1           0        4.308609    0.146130   -0.235970
 ---------------------------------------------------------------------

 SCF Done:  E(RB3LYP) =  -1429.00565769     A.U. after   18 cycles

 Excitation energies and oscillator strengths:

 Excited State   1:      Triplet-A      1.2504 eV  991.53 nm  f=0.0000  <S**2>=2.000
      80 -> 82         0.69965
      81 -> 82         0.16291
      80 <- 82         0.22436
 This state for optimization and/or second-order correction.
 Total Energy, E(TD-HF/TD-DFT) =  -1428.95970497
 Copying the excited state density for this state as the 1-particle RhoCI density.

 Excited State   2:      Triplet-A      2.3849 eV  519.87 nm  f=0.0000  <S**2>=2.000
      80 -> 82        -0.14113
      81 -> 82         0.63501
      81 -> 83        -0.18544
      81 -> 85        -0.17279

 Excited State   3:      Singlet-A      2.4511 eV  505.82 nm  f=0.0085  <S**2>=0.000
      81 -> 82         0.70332

 Excited State   4:      Triplet-A      2.6384 eV  469.91 nm  f=0.0000  <S**2>=2.000
      81 -> 82         0.25999
      81 -> 83         0.38121
      81 -> 84         0.24057
      81 -> 85         0.45416

 Excited State   5:      Singlet-A      3.2067 eV  386.65 nm  f=0.1337  <S**2>=0.000
      80 -> 82         0.69168

 Excited State   6:      Singlet-A      3.4602 eV  358.31 nm  f=0.0037  <S**2>=0.000
      79 -> 82         0.69985

 The electronic state is 1-A.
 Alpha  occ. eigenvalues -- -101.58907 -19.30549 -19.21339 -19.17599 -19.14560
 Alpha  occ. eigenvalues --  -14.57100 -14.47392 -14.43532 -10.30402 -10.29574
 Alpha  occ. eigenvalues --  -10.29198 -10.28437 -10.26569 -10.25856 -10.25817
 Alpha  occ. eigenvalues --  -10.25524 -10.25113 -10.24110 -10.20786 -10.20480
 Alpha  occ. eigenvalues --  -10.19078  -9.50393  -7.26818  -7.25828  -7.25784
 Alpha  occ. eigenvalues --   -1.24436  -1.14500  -1.12181  -1.05034  -0.95537
 Alpha  occ. eigenvalues --   -0.92532  -0.91304  -0.90741  -0.85236  -0.82716
 Alpha  occ. eigenvalues --   -0.80973  -0.77102  -0.73518  -0.71534  -0.70882
 Alpha  occ. eigenvalues --   -0.69413  -0.68142  -0.63558  -0.59740  -0.58806
 Alpha  occ. eigenvalues --   -0.57423  -0.56717  -0.56325  -0.54304  -0.53387
 Alpha  occ. eigenvalues --   -0.52571  -0.50741  -0.48794  -0.48382  -0.47494
 Alpha  occ. eigenvalues --   -0.46534  -0.46393  -0.45148  -0.44735  -0.43971
 Alpha  occ. eigenvalues --   -0.43597  -0.43286  -0.42723  -0.41715  -0.40931
 Alpha  occ. eigenvalues --   -0.40213  -0.39847  -0.38930  -0.38800  -0.37838
 Alpha  occ. eigenvalues --   -0.36351  -0.36154  -0.35633  -0.35026  -0.32019
 Alpha  occ. eigenvalues --   -0.31937  -0.31228  -0.30455  -0.26874  -0.24969
 Alpha  occ. eigenvalues --   -0.23451
 Alpha virt. eigenvalues --   -0.12359  -0.04182  -0.03871  -0.03693  -0.02043
 Alpha virt. eigenvalues --   -0.01616  -0.00195   0.00477   0.00981   0.01632
 Alpha virt. eigenvalues --    0.02155   0.02625   0.02904   0.03364   0.03717

 Mulliken charges:
               1
     1  C   -0.719633
     2  C    0.248895
     3  N   -0.397795
     4  O   -0.016719
     5  C    0.291972
     6  O   -0.445673
     7  C   -0.396026
     8  C   -0.451020
     9  C   -0.368251
    10  C    0.220711
    11  C    1.549259
    12  C   -0.188167
    13  C    0.076579
    14  Cl   0.300328
    15  C    0.418338
    16  C   -0.773439
    17  C   -1.274254
    18  N   -0.587160
    19  O    0.480991
    20  N   -0.499640
    21  O    0.044873
    22  H    0.148672
    23  H    0.197791
    24  H    0.185870
    25  H    0.138870
    26  H    0.374842
    27  H    0.155751
    28  H    0.147097
    29  H    0.168297
    30  H    0.173858
    31  H    0.186762
    32  H    0.140743
    33  H    0.141893
    34  H    0.147997
    35  H    0.177389
 Sum of Mulliken charges =  -0.00000

 Dipole moment (field-independent basis, Debye):
    X=              2.0925    Y=             -4.9528    Z=              1.1405  Tot=              5.4963
 Quadrupole moment (field-independent basis, Debye-Ang):
   XX=           -151.1288   YY=           -139.6264   ZZ=           -130.3065
   XY=              1.9542   XZ=              3.0042   YZ=              1.1043

 Normal termination of Gaussian 16 at Fri Sep 19 02:07:48 2025.
