 Gaussian 16, Revision C.02,
 Gaussian 16:  ES64L-G16RevC.02  7-Dec-2021

 ----------------------------------------------------------
 # td=(50-50,nstates=3) b3lyp/6-31+g(d,p) geom=connectivity
 ----------------------------------------------------------

 -------------------
 Title Card Required
 -------------------
 Symbolic Z-matrix:
 Charge =  0 Multiplicity = 1

                         Standard orientation:
 ---------------------------------------------------------------------
 Center     Atomic      Atomic             Coordinates (Angstroms)
 Number     Number       Type             X           Y           Z
 ---------------------------------------------------------------------
      1          6           0        5.106383    1.171784   -0.391614
      2          6           0        4.431667    0.127946    0.128651
      3          6           0        5.099260   -0.748606    1.060134
      4          7           0        5.648417   -1.442676    1.814358
      5          6           0        3.028763   -0.192779   -0.182195
      6          6           0        1.920144    0.562711   -0.296850
      7          6           0        1.833242    2.070194   -0.246209
      8          6           0        1.731435    2.655525   -1.674118
      9          6           0        0.688542    2.607624    0.630885
     10          6           0        0.776220   -0.382569   -0.586457
     11          6           0       -0.283724   -0.574312    0.550392
     12          8           0       -0.024628   -0.263313    1.694916
     13          6           0       -1.594923   -1.188758    0.121457
     14          6           0       -2.591525   -0.141713   -0.508460
     15          6           0       -3.130497    0.826635    0.520903
     16          6           0       -4.417881    0.831438    0.913840
     17          7           0       -5.387072   -0.015625    0.383437
     18          6           0       -6.796078    0.264166    0.619812
     19          6           0       -5.012473   -0.784171   -0.714821
     20          6           0       -3.748692   -0.855341   -1.171900
     21          6           0        1.486154   -1.735569   -0.739006
     22          8           0        1.035632   -2.798678   -1.073454
     23          8           0        2.800176   -1.564029   -0.386142
     24          1           0        4.653310    1.820974   -1.130975
     25          1           0        6.127092    1.379674   -0.090932
     26          1           0        2.773586    2.425882    0.191901
     27          1           0        1.736496    3.750278   -1.636444
     28          1           0        2.561585    2.330857   -2.310085
     29          1           0        0.799193    2.347570   -2.161747
     30          1           0        0.751902    3.699685    0.683142
     31          1           0        0.731198    2.202846    1.643809
     32          1           0       -0.290988    2.358931    0.207775
     33          1           0        0.244876   -0.160929   -1.519587
     34          1           0       -1.392338   -1.967768   -0.622960
     35          1           0       -2.064596   -1.644926    0.995949
     36          1           0       -2.021825    0.407034   -1.277542
     37          1           0       -2.445306    1.509047    1.012668
     38          1           0       -4.772600    1.507814    1.684927
     39          1           0       -6.938959    0.565000    1.660883
     40          1           0       -7.182080    1.061576   -0.032782
     41          1           0       -7.382455   -0.642212    0.448048
     42          1           0       -5.820019   -1.332303   -1.189610
     43          1           0       -3.543028   -1.487997   -2.030213
 ---------------------------------------------------------------------

 SCF Done:  E(RB3LYP) =  -1033.10882208     A.U. after   16 cycles

 Excitation energies and oscillator strengths:

 Excited State   1:      Triplet-A      2.6660 eV  465.05 nm  f=0.0000  <S**2>=2.000
      78 -> 84        -0.21494
      79 -> 84        -0.10654
      81 -> 84         0.15550
      82 -> 84         0.57856
      83 -> 84        -0.21211
 This state for optimization and/or second-order correction.
 Total Energy, E(TD-HF/TD-DFT) =  -1033.01084763
 Copying the excited state density for this state as the 1-particle RhoCI density.

 Excited State   2:      Triplet-A      2.7045 eV  458.43 nm  f=0.0000  <S**2>=2.000
      82 -> 84         0.17925
      83 -> 84         0.66632

 Excited State   3:      Singlet-A      2.7074 eV  457.94 nm  f=0.0001  <S**2>=0.000
      83 -> 84         0.70524

 Excited State   4:      Triplet-A      2.9864 eV  415.16 nm  f=0.0000  <S**2>=2.000
      83 -> 85        -0.29292
      83 -> 87         0.49612
      83 -> 88        -0.35370

 Excited State   5:      Singlet-A      3.2697 eV  379.19 nm  f=0.0514  <S**2>=0.000
      83 -> 85         0.69651

 Excited State   6:      Singlet-A      3.9978 eV  310.13 nm  f=0.0040  <S**2>=0.000
      83 -> 86         0.67211
      83 -> 88         0.12531

 The electronic state is 1-A.
 Alpha  occ. eigenvalues --  -19.23138 -19.17170 -19.16966 -14.38499 -14.35455
 Alpha  occ. eigenvalues --  -10.34849 -10.30504 -10.28556 -10.27374 -10.24566
 Alpha  occ. eigenvalues --  -10.24418 -10.24310 -10.24012 -10.23507 -10.23420
 Alpha  occ. eigenvalues --  -10.23182 -10.22699 -10.22546 -10.20404 -10.20268
 Alpha  occ. eigenvalues --  -10.19345 -10.19233 -10.19149  -1.14199  -1.06873
 Alpha  occ. eigenvalues --   -1.06147  -0.97947  -0.92183  -0.86937  -0.84680
 Alpha  occ. eigenvalues --   -0.83473  -0.80475  -0.77420  -0.76777  -0.74832
 Alpha  occ. eigenvalues --   -0.71148  -0.70570  -0.68430  -0.64425  -0.63826
 Alpha  occ. eigenvalues --   -0.63676  -0.61511  -0.58299  -0.56400  -0.54988
 Alpha  occ. eigenvalues --   -0.53781  -0.51452  -0.50202  -0.50145  -0.49253
 Alpha  occ. eigenvalues --   -0.48409  -0.47879  -0.47191  -0.46486  -0.46111
 Alpha  occ. eigenvalues --   -0.45486  -0.44650  -0.44420  -0.44069  -0.43499
 Alpha  occ. eigenvalues --   -0.43065  -0.42038  -0.41676  -0.40970  -0.40646
 Alpha  occ. eigenvalues --   -0.39869  -0.39608  -0.38076  -0.37555  -0.37300
 Alpha  occ. eigenvalues --   -0.37008  -0.36749  -0.36287  -0.35729  -0.35296
 Alpha  occ. eigenvalues --   -0.34722  -0.34480  -0.30845  -0.29957  -0.27908
 Alpha  occ. eigenvalues --   -0.27445  -0.25472  -0.19849
 Alpha virt. eigenvalues --   -0.08549  -0.05525  -0.03125  -0.01651  -0.01542
 Alpha virt. eigenvalues --   -0.00798  -0.00149   0.00601   0.00921   0.01347
 Alpha virt. eigenvalues --    0.01641   0.02027   0.02285   0.02611   0.03062

 Mulliken charges:
               1
     1  C   -0.368287
     2  C    0.116172
     3  C   -0.086809
     4  N   -0.489558
     5  C    0.819867
     6  C   -0.526985
     7  C    0.304296
     8  C   -0.515799
     9  C   -0.601802
    10  C    0.086351
    11  C    0.189370
    12  O   -0.293206
    13  C   -0.712506
    14  C    0.116434
    15  C   -0.146430
    16  C   -0.306111
    17  N   -0.000662
    18  C   -0.161965
    19  C   -0.048782
    20  C   -0.111195
    21  C    0.402291
    22  O   -0.424128
    23  O   -0.219394
    24  H    0.156691
    25  H    0.170290
    26  H    0.133402
    27  H    0.153381
    28  H    0.141827
    29  H    0.150011
    30  H    0.142680
    31  H    0.183526
    32  H    0.139258
    33  H    0.186518
    34  H    0.182142
    35  H    0.175458
    36  H    0.121118
    37  H    0.125534
    38  H    0.121566
    39  H    0.148066
    40  H    0.156385
    41  H    0.147912
    42  H    0.122140
    43  H    0.120933
 Sum of Mulliken charges =  -0.00000

 Dipole moment (field-independent basis, Debye):
    X=             -5.4398    Y=              6.3856    Z=             -3.4634  Tot=              9.0753
 Quadrupole moment (field-independent basis, Debye-Ang):
   XX=           -119.9267   YY=           -146.0872   ZZ=           -145.6612
   XY=             23.0933   XZ=            -16.5915   YZ=              2.5264

 Normal termination of Gaussian 16 at Thu Jul 31 13:06:16 2025.
