 Gaussian 16, Revision C.02,
 Gaussian 16:  ES64L-G16RevC.02  7-Dec-2021

 ----------------------------------------------------------
 # td=(50-50,nstates=3) b3lyp/6-31+g(d,p) geom=connectivity
 ----------------------------------------------------------

 -------------------
 Title Card Required
 -------------------
 Symbolic Z-matrix:
 Charge =  0 Multiplicity = 1

                         Standard orientation:
 ---------------------------------------------------------------------
 Center     Atomic      Atomic             Coordinates (Angstroms)
 Number     Number       Type             X           Y           Z
 ---------------------------------------------------------------------
      1          6           0       -3.286178   -0.992895   -0.000119
      2          6           0       -1.972222   -0.244872   -0.000027
      3          6           0       -1.931382    1.156658   -0.000011
      4          6           0       -0.710516    1.832913    0.000048
      5          6           0        0.493328    1.123986    0.000098
      6          6           0        0.473157   -0.274210    0.000088
      7          6           0        1.746834   -1.116694    0.000182
      8          6           0        2.996512   -0.351973   -0.000061
      9          7           0        3.991912    0.245840   -0.000245
     10          6           0       -0.757219   -0.942643    0.000025
     11          1           0       -4.135364   -0.304005    0.000075
     12          1           0       -3.377927   -1.636510   -0.882693
     13          1           0       -3.377834   -1.636899    0.882181
     14          1           0       -2.861014    1.719712   -0.000049
     15          1           0       -0.693323    2.918921    0.000057
     16          1           0        1.438777    1.657374    0.000139
     17          1           0        1.761317   -1.774514    0.878440
     18          1           0        1.761200   -1.774885   -0.877798
     19          1           0       -0.773100   -2.031687    0.000016
 ---------------------------------------------------------------------

 SCF Done:  E(RB3LYP) =  -403.148043398     A.U. after   16 cycles

 Excitation energies and oscillator strengths:

 Excited State   1:      Triplet-A      3.6653 eV  338.27 nm  f=0.0000  <S**2>=2.000
      34 -> 36         0.50702
      34 -> 37         0.11181
      35 -> 36        -0.15716
      35 -> 37         0.43478
 This state for optimization and/or second-order correction.
 Total Energy, E(TD-HF/TD-DFT) =  -403.013346573
 Copying the excited state density for this state as the 1-particle RhoCI density.

 Excited State   2:      Triplet-A      4.4542 eV  278.35 nm  f=0.0000  <S**2>=2.000
      34 -> 36         0.12388
      34 -> 37         0.25305
      35 -> 36         0.64065

 Excited State   3:      Triplet-A      4.5552 eV  272.18 nm  f=0.0000  <S**2>=2.000
      34 -> 36        -0.44480
      35 -> 37         0.53750

 Excited State   4:      Singlet-A      5.1572 eV  240.41 nm  f=0.0108  <S**2>=0.000
      34 -> 36         0.13562
      34 -> 37        -0.39912
      35 -> 36         0.55414
      35 -> 37         0.11260

 Excited State   5:      Singlet-A      5.7538 eV  215.48 nm  f=0.0033  <S**2>=0.000
      34 -> 36         0.56146
      35 -> 36        -0.16538
      35 -> 37         0.38215

 Excited State   6:      Singlet-A      6.0577 eV  204.67 nm  f=0.0000  <S**2>=0.000
      35 -> 38         0.69817

 The electronic state is 1-A.
 Alpha  occ. eigenvalues --  -14.34801 -10.25232 -10.24190 -10.22649 -10.21703
 Alpha  occ. eigenvalues --  -10.20633 -10.20620 -10.20391 -10.20293 -10.19838
 Alpha  occ. eigenvalues --   -0.91726  -0.87787  -0.81560  -0.77977  -0.73652
 Alpha  occ. eigenvalues --   -0.69999  -0.61696  -0.60327  -0.52536  -0.51783
 Alpha  occ. eigenvalues --   -0.48117  -0.47519  -0.46236  -0.43489  -0.43266
 Alpha  occ. eigenvalues --   -0.42314  -0.39789  -0.37300  -0.36696  -0.36307
 Alpha  occ. eigenvalues --   -0.35605  -0.33733  -0.33623  -0.26331  -0.25801
 Alpha virt. eigenvalues --   -0.03353  -0.02085  -0.00734   0.00689   0.01513
 Alpha virt. eigenvalues --    0.01659   0.02585   0.03339   0.03574   0.03608
 Alpha virt. eigenvalues --    0.05096   0.05951   0.06101   0.06463   0.07635

 Mulliken charges:
               1
     1  C   -0.595975
     2  C    0.320783
     3  C   -0.542216
     4  C   -0.388327
     5  C   -0.670657
     6  C    0.598947
     7  C   -0.175457
     8  C   -0.087143
     9  N   -0.486949
    10  C    0.630493
    11  H    0.151975
    12  H    0.165016
    13  H    0.165006
    14  H    0.121917
    15  H    0.130698
    16  H    0.143297
    17  H    0.201566
    18  H    0.201555
    19  H    0.115468
 Sum of Mulliken charges =  -0.00000

 Dipole moment (field-independent basis, Debye):
    X=             -4.0270    Y=             -2.0191    Z=              0.0006  Tot=              4.5049
 Quadrupole moment (field-independent basis, Debye-Ang):
   XX=            -74.7877   YY=            -53.1040   ZZ=            -62.0614
   XY=             -4.8850   XZ=              0.0028   YZ=              0.0000

 Normal termination of Gaussian 16 at Thu Jul 31 12:46:53 2025.
