 Gaussian 16, Revision C.02,
 Gaussian 16:  ES64L-G16RevC.02  7-Dec-2021

 ----------------------------------------------------------
 # td=(50-50,nstates=3) b3lyp/6-31+g(d,p) geom=connectivity
 ----------------------------------------------------------

 -------------------
 Title Card Required
 -------------------
 Symbolic Z-matrix:
 Charge =  0 Multiplicity = 1

                         Standard orientation:
 ---------------------------------------------------------------------
 Center     Atomic      Atomic             Coordinates (Angstroms)
 Number     Number       Type             X           Y           Z
 ---------------------------------------------------------------------
      1          6           0       -1.493060    4.200959   -0.022748
      2          6           0       -0.367429    3.187519   -0.029988
      3          8           0       -0.989802    1.871161    0.042017
      4          6           0       -0.273836    0.743236    0.017128
      5          6           0       -0.953420   -0.459051    0.006510
      6          7           0       -2.432349   -0.387262    0.010304
      7          8           0       -2.985726   -0.318865   -1.081379
      8          8           0       -2.984144   -0.398613    1.104768
      9          6           0       -0.321964   -1.746578   -0.006179
     10         17           0       -1.322728   -3.170048   -0.019992
     11          6           0        1.043080   -1.871477   -0.011404
     12          6           0        1.761498   -0.654688   -0.002022
     13          6           0        1.165426    0.641261    0.012844
     14          7           0        2.082510    1.601093    0.022559
     15          8           0        3.289585    0.968606    0.013497
     16          7           0        3.092133   -0.466947   -0.001861
     17          8           0        4.066058   -1.208941   -0.011326
     18          1           0       -1.069771    5.209221   -0.073862
     19          1           0       -2.154221    4.058236   -0.881957
     20          1           0       -2.085882    4.120290    0.892631
     21          1           0        0.297817    3.307746    0.828926
     22          1           0        0.227215    3.242888   -0.945998
     23          1           0        1.545627   -2.829623   -0.022352
 ---------------------------------------------------------------------

 SCF Done:  E(RB3LYP) =  -1308.79270896     A.U. after   18 cycles

 Excitation energies and oscillator strengths:

 Excited State   1:      Triplet-A      1.1505 eV 1077.63 nm  f=0.0000  <S**2>=2.000
      64 -> 67         0.11921
      66 -> 67         0.72186
      66 <- 67         0.24194
 This state for optimization and/or second-order correction.
 Total Energy, E(TD-HF/TD-DFT) =  -1308.75042796
 Copying the excited state density for this state as the 1-particle RhoCI density.

 Excited State   2:      Triplet-A      2.8287 eV  438.31 nm  f=0.0000  <S**2>=2.000
      60 -> 68         0.70145
      66 -> 68         0.12641
      60 <- 68         0.18678

 Excited State   3:      Triplet-A      2.8760 eV  431.10 nm  f=0.0000  <S**2>=2.000
      60 -> 68        -0.15610
      61 -> 68        -0.19024
      65 -> 68        -0.31549
      66 -> 68         0.57254

 Excited State   4:      Singlet-A      3.0308 eV  409.08 nm  f=0.0057  <S**2>=0.000
      65 -> 68        -0.18592
      66 -> 67         0.18065
      66 -> 68         0.65378

 Excited State   5:      Singlet-A      3.0737 eV  403.37 nm  f=0.1034  <S**2>=0.000
      66 -> 67         0.67407
      66 -> 68        -0.17489

 Excited State   6:      Singlet-A      3.8838 eV  319.23 nm  f=0.0002  <S**2>=0.000
      61 -> 68         0.27134
      64 -> 68        -0.16925
      65 -> 68         0.59210
      66 -> 68         0.19791

 The electronic state is 1-A.
 Alpha  occ. eigenvalues -- -101.59405 -19.31450 -19.23941 -19.22272 -19.22268
 Alpha  occ. eigenvalues --  -19.22029 -14.60712 -14.57751 -14.44832 -10.33351
 Alpha  occ. eigenvalues --  -10.31638 -10.30101 -10.29969 -10.29553 -10.28011
 Alpha  occ. eigenvalues --  -10.25786 -10.20896  -9.50858  -7.27316  -7.26276
 Alpha  occ. eigenvalues --   -7.26237  -1.26231  -1.25260  -1.15515  -1.12553
 Alpha  occ. eigenvalues --   -1.09098  -0.96346  -0.92495  -0.91654  -0.87410
 Alpha  occ. eigenvalues --   -0.81934  -0.80287  -0.76770  -0.70392  -0.67778
 Alpha  occ. eigenvalues --   -0.66939  -0.64017  -0.60497  -0.58907  -0.57485
 Alpha  occ. eigenvalues --   -0.57139  -0.55576  -0.54354  -0.54205  -0.52825
 Alpha  occ. eigenvalues --   -0.52321  -0.49248  -0.47994  -0.46410  -0.45267
 Alpha  occ. eigenvalues --   -0.45150  -0.43660  -0.42070  -0.41889  -0.40669
 Alpha  occ. eigenvalues --   -0.38628  -0.38178  -0.37124  -0.35487  -0.34304
 Alpha  occ. eigenvalues --   -0.34118  -0.33778  -0.32757  -0.32048  -0.29629
 Alpha  occ. eigenvalues --   -0.24730
 Alpha virt. eigenvalues --   -0.12655  -0.10527  -0.04620  -0.03596  -0.02652
 Alpha virt. eigenvalues --   -0.01230   0.00183   0.00758   0.01562   0.02058
 Alpha virt. eigenvalues --    0.02687   0.03018   0.03725   0.04802   0.04955

 Mulliken charges:
               1
     1  C   -0.739200
     2  C    0.344189
     3  O   -0.366842
     4  C   -0.130232
     5  C   -0.561991
     6  N   -0.399551
     7  O    0.032182
     8  O    0.028787
     9  C    0.150199
    10  Cl   0.313049
    11  C    0.568427
    12  C   -0.592946
    13  C    1.015254
    14  N   -0.523341
    15  O    0.365756
    16  N   -0.546603
    17  O    0.038326
    18  H    0.157901
    19  H    0.171771
    20  H    0.170930
    21  H    0.165255
    22  H    0.160396
    23  H    0.178285
 Sum of Mulliken charges =  -0.00000

 Dipole moment (field-independent basis, Debye):
    X=              0.7090    Y=              2.1548    Z=             -0.0971  Tot=              2.2705
 Quadrupole moment (field-independent basis, Debye-Ang):
   XX=           -131.0704   YY=            -89.9155   ZZ=           -105.4527
   XY=             -2.6368   XZ=              0.1321   YZ=             -0.1167

 Normal termination of Gaussian 16 at Fri Sep 19 04:06:32 2025.
