 Gaussian 16, Revision C.02,
 Gaussian 16:  ES64L-G16RevC.02  7-Dec-2021

 ----------------------------------------------------------
 # td=(50-50,nstates=3) b3lyp/6-31+g(d,p) geom=connectivity
 ----------------------------------------------------------

 -------------------
 Title Card Required
 -------------------
 Symbolic Z-matrix:
 Charge =  0 Multiplicity = 1

                         Standard orientation:
 ---------------------------------------------------------------------
 Center     Atomic      Atomic             Coordinates (Angstroms)
 Number     Number       Type             X           Y           Z
 ---------------------------------------------------------------------
      1          6           0        0.431741    3.136129    0.703324
      2          6           0        1.219239    1.808477    0.762984
      3          6           0        1.805257    1.670353    2.184936
      4          6           0        0.301244    0.620301    0.356345
      5          6           0       -0.988508    0.415768    1.176392
      6          7           0       -2.154232    1.197033    0.734324
      7          6           0       -3.151868    0.362464    0.281603
      8          6           0       -4.373428    0.716574   -0.313173
      9          6           0       -5.239315   -0.321442   -0.643636
     10         17           0       -6.778495    0.082568   -1.388786
     11          6           0       -4.948072   -1.679478   -0.409018
     12          6           0       -3.729623   -2.012197    0.172954
     13          6           0       -2.833627   -0.993605    0.511073
     14          6           0       -1.485698   -1.049472    1.075324
     15          8           0       -0.825863   -2.021410    1.414376
     16          7           0        2.291444    1.963154   -0.231793
     17          6           0        3.213276    1.140268   -0.565004
     18          6           0        4.203867    1.638925   -1.633399
     19          7           0        4.977682    0.459278   -2.017210
     20          6           0        4.741878   -0.551007   -1.099824
     21          6           0        5.422316   -1.773665   -1.020496
     22          6           0        5.012285   -2.700031   -0.065421
     23          6           0        3.939053   -2.423118    0.795548
     24          6           0        3.270300   -1.202465    0.714239
     25          6           0        3.666628   -0.239370   -0.228283
     26          1           0       -0.002485    3.281372   -0.292276
     27          1           0       -0.360630    3.173963    1.459609
     28          1           0        1.111106    3.973689    0.884611
     29          1           0        2.409099    0.770723    2.308702
     30          1           0        1.013359    1.654794    2.941139
     31          1           0        2.445089    2.532936    2.396331
     32          1           0        0.027517    0.746061   -0.698579
     33          1           0        0.861803   -0.313221    0.423304
     34          1           0       -0.795855    0.610255    2.239124
     35          1           0       -2.028525    2.112535    0.329186
     36          1           0       -4.643552    1.749400   -0.502629
     37          1           0       -5.667908   -2.440171   -0.686398
     38          1           0       -3.463908   -3.048415    0.358898
     39          1           0        3.666999    2.072215   -2.481175
     40          1           0        4.840911    2.418695   -1.193654
     41          1           0        5.920133    0.585798   -2.358857
     42          1           0        6.243208   -1.993034   -1.697344
     43          1           0        5.528136   -3.653345    0.008227
     44          1           0        3.622544   -3.159878    1.526366
     45          1           0        2.448342   -1.023441    1.393716
 ---------------------------------------------------------------------

 SCF Done:  E(RB3LYP) =  -1473.90479894     A.U. after   17 cycles

 Excitation energies and oscillator strengths:

 Excited State   1:      Triplet-A      2.6890 eV  461.09 nm  f=0.0000  <S**2>=2.000
      90 -> 95        -0.13453
      93 -> 94         0.10260
      93 -> 95         0.66481
 This state for optimization and/or second-order correction.
 Total Energy, E(TD-HF/TD-DFT) =  -1473.80598170
 Copying the excited state density for this state as the 1-particle RhoCI density.

 Excited State   2:      Triplet-A      2.7838 eV  445.38 nm  f=0.0000  <S**2>=2.000
      88 -> 94         0.10327
      92 -> 94         0.68873

 Excited State   3:      Triplet-A      3.2739 eV  378.71 nm  f=0.0000  <S**2>=2.000
      89 -> 94         0.40420
      90 -> 94         0.33059
      91 -> 94         0.22100
      93 -> 94        -0.36643

 Excited State   4:      Singlet-A      3.3491 eV  370.20 nm  f=0.0155  <S**2>=0.000
      93 -> 94         0.69710

 Excited State   5:      Singlet-A      3.5367 eV  350.56 nm  f=0.0382  <S**2>=0.000
      89 -> 94         0.19132
      90 -> 94         0.15580
      91 -> 94         0.13967
      92 -> 94         0.63187

 Excited State   6:      Singlet-A      3.5802 eV  346.30 nm  f=0.1491  <S**2>=0.000
      93 -> 95         0.68412

 The electronic state is 1-A.
 Alpha  occ. eigenvalues -- -101.56313 -19.14726 -14.37417 -14.36331 -14.32330
 Alpha  occ. eigenvalues --  -10.28211 -10.27578 -10.25956 -10.25029 -10.24448
 Alpha  occ. eigenvalues --  -10.24408 -10.23913 -10.22956 -10.22064 -10.21668
 Alpha  occ. eigenvalues --  -10.21091 -10.20766 -10.20621 -10.20559 -10.20450
 Alpha  occ. eigenvalues --  -10.20045 -10.20033 -10.19373 -10.18485 -10.18223
 Alpha  occ. eigenvalues --   -9.47825  -7.24228  -7.23270  -7.23222  -1.04423
 Alpha  occ. eigenvalues --   -0.97630  -0.96994  -0.91846  -0.90051  -0.85295
 Alpha  occ. eigenvalues --   -0.84427  -0.81579  -0.78425  -0.76706  -0.75817
 Alpha  occ. eigenvalues --   -0.74770  -0.74571  -0.71242  -0.69659  -0.68128
 Alpha  occ. eigenvalues --   -0.64278  -0.63643  -0.61226  -0.60499  -0.59688
 Alpha  occ. eigenvalues --   -0.57408  -0.55240  -0.53824  -0.52421  -0.50820
 Alpha  occ. eigenvalues --   -0.50522  -0.49007  -0.48626  -0.47727  -0.46972
 Alpha  occ. eigenvalues --   -0.46596  -0.45993  -0.45324  -0.45025  -0.44232
 Alpha  occ. eigenvalues --   -0.43975  -0.43114  -0.42421  -0.41995  -0.40945
 Alpha  occ. eigenvalues --   -0.40499  -0.40060  -0.39690  -0.38578  -0.38496
 Alpha  occ. eigenvalues --   -0.37800  -0.37737  -0.37606  -0.36601  -0.35974
 Alpha  occ. eigenvalues --   -0.35834  -0.35104  -0.33443  -0.32470  -0.32218
 Alpha  occ. eigenvalues --   -0.31136  -0.30430  -0.26627  -0.26240  -0.25553
 Alpha  occ. eigenvalues --   -0.23935  -0.22632  -0.21075
 Alpha virt. eigenvalues --   -0.07267  -0.05778  -0.01857  -0.00859  -0.00678
 Alpha virt. eigenvalues --   -0.00387   0.00498   0.00854   0.01139   0.01455
 Alpha virt. eigenvalues --    0.01725   0.02296   0.02874   0.03056   0.03285

 Mulliken charges:
               1
     1  C   -0.157893
     2  C   -0.402989
     3  C   -0.386769
     4  C   -0.338839
     5  C   -0.199895
     6  N   -0.201629
     7  C   -1.829290
     8  C   -0.107289
     9  C   -0.005613
    10  Cl   0.262374
    11  C   -0.278369
    12  C    0.336366
    13  C    0.996006
    14  C    0.407068
    15  O   -0.457471
    16  N    0.080172
    17  C   -0.092756
    18  C   -0.627953
    19  N   -0.339126
    20  C   -0.621895
    21  C   -0.246994
    22  C   -0.175920
    23  C   -0.348729
    24  C   -0.503576
    25  C    2.029590
    26  H    0.142810
    27  H    0.138813
    28  H    0.162791
    29  H    0.139636
    30  H    0.139952
    31  H    0.152690
    32  H    0.160386
    33  H    0.159434
    34  H    0.158542
    35  H    0.297158
    36  H    0.139391
    37  H    0.145340
    38  H    0.157594
    39  H    0.166502
    40  H    0.159572
    41  H    0.294703
    42  H    0.119320
    43  H    0.127719
    44  H    0.130974
    45  H    0.118092
 Sum of Mulliken charges =  -0.00000

 Dipole moment (field-independent basis, Debye):
    X=              2.9533    Y=              2.0029    Z=             -0.7268  Tot=              3.6416
 Quadrupole moment (field-independent basis, Debye-Ang):
   XX=           -142.7792   YY=           -152.9236   ZZ=           -157.2024
   XY=             -1.0940   XZ=             -7.6660   YZ=              1.9518

 Normal termination of Gaussian 16 at Fri Sep 19 04:23:13 2025.
