 Gaussian 16, Revision C.02,
 Gaussian 16:  ES64L-G16RevC.02  7-Dec-2021

 ----------------------------------------------------------
 # td=(50-50,nstates=3) b3lyp/6-31+g(d,p) geom=connectivity
 ----------------------------------------------------------

 -------------------
 Title Card Required
 -------------------
 Symbolic Z-matrix:
 Charge =  0 Multiplicity = 1

                         Standard orientation:
 ---------------------------------------------------------------------
 Center     Atomic      Atomic             Coordinates (Angstroms)
 Number     Number       Type             X           Y           Z
 ---------------------------------------------------------------------
      1          6           0        2.994992    4.378098    0.845626
      2          6           0        2.262956    3.207215    0.369278
      3          6           0        1.674674    2.219491   -0.011434
      4          6           0        0.913266    1.052048   -0.464780
      5          6           0       -0.534352    1.078481    0.064057
      6          7           0       -1.331889    2.053351    0.153915
      7          6           0       -0.889118   -0.323704    0.540175
      8          6           0       -1.424305   -0.320303    1.908025
      9          7           0       -1.854082   -0.306376    2.985228
     10          6           0       -1.798729   -1.138075   -0.442569
     11          6           0       -3.231773   -0.673207   -0.561712
     12          6           0       -4.202595   -1.108459    0.352615
     13          6           0       -5.530617   -0.695723    0.230420
     14          6           0       -5.909782    0.151754   -0.814012
     15          6           0       -4.953193    0.582855   -1.736321
     16          6           0       -3.624857    0.172562   -1.608298
     17          7           0        0.463780   -1.013044    0.551144
     18          8           0        0.510185   -2.199376    1.007835
     19          6           0        1.431823   -0.304320   -0.010714
     20          6           0        2.785275   -0.793143   -0.247265
     21          6           0        3.275352   -1.995056    0.314124
     22          6           0        4.576595   -2.417671    0.043348
     23          6           0        5.412356   -1.672707   -0.791596
     24          6           0        4.937955   -0.484734   -1.356725
     25          6           0        3.645042   -0.046314   -1.085667
     26          1           0        2.531272    4.788193    1.749041
     27          1           0        4.029928    4.114322    1.088808
     28          1           0        3.016572    5.167417    0.086654
     29          1           0        0.868180    1.068411   -1.567506
     30          1           0       -0.895939    2.917515   -0.183481
     31          1           0       -1.306075   -1.101708   -1.420311
     32          1           0       -1.748328   -2.172421   -0.090486
     33          1           0       -3.918995   -1.770926    1.165354
     34          1           0       -6.268390   -1.039725    0.949298
     35          1           0       -6.943778    0.469787   -0.910908
     36          1           0       -5.239596    1.237225   -2.554623
     37          1           0       -2.886982    0.511324   -2.330996
     38          1           0        2.628640   -2.582135    0.950564
     39          1           0        4.935492   -3.341309    0.487831
     40          1           0        6.422481   -2.012367   -1.001045
     41          1           0        5.576918    0.103892   -2.008441
     42          1           0        3.306658    0.885468   -1.523897
 ---------------------------------------------------------------------

 SCF Done:  E(RB3LYP) =  -1049.85262274     A.U. after   17 cycles

 Excitation energies and oscillator strengths:

 Excited State   1:      Triplet-A      1.9843 eV  624.83 nm  f=0.0000  <S**2>=2.000
      86 -> 87         0.68452
      86 -> 88         0.10467
      86 <- 87         0.15336
 This state for optimization and/or second-order correction.
 Total Energy, E(TD-HF/TD-DFT) =  -1049.77970169
 Copying the excited state density for this state as the 1-particle RhoCI density.

 Excited State   2:      Triplet-A      3.6249 eV  342.04 nm  f=0.0000  <S**2>=2.000
      82 -> 87         0.47233
      83 -> 87        -0.32646
      84 -> 92        -0.14754
      85 -> 87        -0.24497
      85 -> 90         0.15152

 Excited State   3:      Triplet-A      3.6848 eV  336.47 nm  f=0.0000  <S**2>=2.000
      82 -> 87        -0.22381
      83 -> 87         0.16283
      84 -> 92        -0.39393
      85 -> 87        -0.10348
      85 -> 88         0.12446
      85 -> 90         0.38762
      85 -> 91        -0.13268
      85 -> 93         0.11880
      86 -> 90         0.10915

 Excited State   4:      Singlet-A      3.9292 eV  315.55 nm  f=0.0889  <S**2>=0.000
      82 -> 87         0.48620
      83 -> 87        -0.28118
      85 -> 87        -0.23491
      86 -> 87        -0.29973

 Excited State   5:      Singlet-A      4.0211 eV  308.33 nm  f=0.2416  <S**2>=0.000
      82 -> 87        -0.23104
      83 -> 87         0.14944
      86 -> 87        -0.44439
      86 -> 88         0.46337

 Excited State   6:      Singlet-A      4.2631 eV  290.83 nm  f=0.1813  <S**2>=0.000
      82 -> 87         0.24559
      85 -> 87         0.27022
      86 -> 87         0.36750
      86 -> 88         0.46523

 The electronic state is 1-A.
 Alpha  occ. eigenvalues --  -19.15641 -14.49697 -14.35897 -14.35241 -10.30444
 Alpha  occ. eigenvalues --  -10.28496 -10.27171 -10.26987 -10.24207 -10.22996
 Alpha  occ. eigenvalues --  -10.22819 -10.22765 -10.21950 -10.21515 -10.21208
 Alpha  occ. eigenvalues --  -10.21205 -10.21156 -10.21095 -10.20743 -10.20570
 Alpha  occ. eigenvalues --  -10.20129 -10.19980 -10.19916 -10.19843 -10.19788
 Alpha  occ. eigenvalues --   -1.13301  -0.96704  -0.91822  -0.91394  -0.87666
 Alpha  occ. eigenvalues --   -0.86744  -0.83789  -0.81338  -0.78452  -0.78041
 Alpha  occ. eigenvalues --   -0.76375  -0.75695  -0.75276  -0.71230  -0.69570
 Alpha  occ. eigenvalues --   -0.65456  -0.63653  -0.61977  -0.61245  -0.60314
 Alpha  occ. eigenvalues --   -0.59062  -0.55564  -0.53942  -0.52762  -0.51967
 Alpha  occ. eigenvalues --   -0.51585  -0.50256  -0.49193  -0.48242  -0.47393
 Alpha  occ. eigenvalues --   -0.46807  -0.46162  -0.45633  -0.45268  -0.44930
 Alpha  occ. eigenvalues --   -0.44744  -0.44311  -0.43962  -0.43463  -0.42738
 Alpha  occ. eigenvalues --   -0.41737  -0.40226  -0.38632  -0.37524  -0.37263
 Alpha  occ. eigenvalues --   -0.36911  -0.36123  -0.35585  -0.35234  -0.34891
 Alpha  occ. eigenvalues --   -0.34115  -0.33886  -0.30916  -0.29806  -0.28891
 Alpha  occ. eigenvalues --   -0.28131  -0.27265  -0.26873  -0.25850  -0.25559
 Alpha  occ. eigenvalues --   -0.23228
 Alpha virt. eigenvalues --   -0.07787  -0.05345  -0.02567  -0.02348  -0.01847
 Alpha virt. eigenvalues --   -0.01752  -0.00763  -0.00233   0.00439   0.00711
 Alpha virt. eigenvalues --    0.01123   0.01551   0.01731   0.02172   0.02696

 Mulliken charges:
               1
     1  C   -0.983638
     2  C    0.535321
     3  C   -0.093079
     4  C    0.862191
     5  C   -0.728446
     6  N   -0.253991
     7  C    0.990740
     8  C   -0.398222
     9  N   -0.355765
    10  C   -0.526847
    11  C    0.636145
    12  C   -0.088171
    13  C    0.067703
    14  C   -0.108031
    15  C   -0.134433
    16  C   -0.345100
    17  N   -0.127404
    18  O    0.072853
    19  C   -0.554472
    20  C    0.413954
    21  C   -0.180300
    22  C   -0.242237
    23  C   -0.149498
    24  C   -0.592177
    25  C   -0.387638
    26  H    0.185740
    27  H    0.184610
    28  H    0.178208
    29  H    0.203656
    30  H    0.272631
    31  H    0.141256
    32  H    0.205422
    33  H    0.133305
    34  H    0.128521
    35  H    0.125312
    36  H    0.123357
    37  H    0.101469
    38  H    0.177353
    39  H    0.133110
    40  H    0.128943
    41  H    0.128793
    42  H    0.118854
 Sum of Mulliken charges =  -0.00000

 Dipole moment (field-independent basis, Debye):
    X=              3.6511    Y=              3.4549    Z=             -4.9438  Tot=              7.0504
 Quadrupole moment (field-independent basis, Debye-Ang):
   XX=           -127.9759   YY=           -136.9911   ZZ=           -156.3462
   XY=              6.6696   XZ=              5.0944   YZ=             -0.9201

 Normal termination of Gaussian 16 at Thu Jul 31 13:35:54 2025.
