 Gaussian 16, Revision C.02,
 Gaussian 16:  ES64L-G16RevC.02  7-Dec-2021

 ----------------------------------------------------------
 # td=(50-50,nstates=3) b3lyp/6-31+g(d,p) geom=connectivity
 ----------------------------------------------------------

 -------------------
 Title Card Required
 -------------------
 Symbolic Z-matrix:
 Charge =  0 Multiplicity = 1

                         Standard orientation:
 ---------------------------------------------------------------------
 Center     Atomic      Atomic             Coordinates (Angstroms)
 Number     Number       Type             X           Y           Z
 ---------------------------------------------------------------------
      1          6           0       -5.464794   -0.185929   -0.695615
      2          6           0       -4.098286   -0.709272   -0.316048
      3          6           0       -3.961257   -1.758863    0.609545
      4          6           0       -2.708999   -2.261612    0.982947
      5          6           0       -1.607757   -1.669861    0.389368
      6          6           0       -1.696316   -0.636217   -0.532963
      7          6           0       -2.942632   -0.141740   -0.890245
      8          6           0       -0.285786   -0.255494   -0.955198
      9          6           0        0.008770    1.225153   -0.724365
     10          6           0        0.014573    2.117927   -1.803542
     11          6           0        0.231755    3.485098   -1.605726
     12          6           0        0.448307    3.982121   -0.323714
     13          6           0        0.445551    3.093286    0.766430
     14          6           0        0.667904    3.593950    2.094271
     15          7           0        0.845484    4.007687    3.167315
     16          6           0        0.226864    1.722087    0.564467
     17          6           0        0.567777   -1.233380   -0.153010
     18          6           0        2.013518   -1.354697   -0.234035
     19          6           0        2.758170   -2.216508    0.606647
     20          6           0        4.144988   -2.296155    0.482407
     21          6           0        4.825389   -1.535570   -0.471257
     22          6           0        4.101834   -0.682458   -1.311132
     23          6           0        2.718366   -0.590549   -1.194354
     24          7           0       -0.226022   -2.006144    0.598783
     25          8           0        0.092763   -2.948122    1.400571
     26          1           0       -6.257624   -0.720944   -0.166209
     27          1           0       -5.562260    0.879396   -0.456481
     28          1           0       -5.647801   -0.295043   -1.770956
     29          1           0       -4.855527   -2.190906    1.049868
     30          1           0       -2.587619   -3.069053    1.695801
     31          1           0       -3.035166    0.676995   -1.599803
     32          1           0       -0.158709   -0.461427   -2.027316
     33          1           0       -0.147190    1.741803   -2.810787
     34          1           0        0.235899    4.160919   -2.455278
     35          1           0        0.621697    5.039706   -0.157060
     36          1           0        0.232394    1.050649    1.417249
     37          1           0        2.234648   -2.813016    1.340663
     38          1           0        4.696457   -2.962498    1.139434
     39          1           0        5.905414   -1.605480   -0.561414
     40          1           0        4.616666   -0.085969   -2.058710
     41          1           0        2.182743    0.081149   -1.855518
 ---------------------------------------------------------------------

 SCF Done:  E(RB3LYP) =  -1032.70634406     A.U. after   19 cycles

 Excitation energies and oscillator strengths:

 Excited State   1:      Triplet-A      1.7151 eV  722.89 nm  f=0.0000  <S**2>=2.000
      85 -> 86         0.69190
      85 <- 86         0.15725
 This state for optimization and/or second-order correction.
 Total Energy, E(TD-HF/TD-DFT) =  -1032.64331440
 Copying the excited state density for this state as the 1-particle RhoCI density.

 Excited State   2:      Triplet-A      3.3369 eV  371.55 nm  f=0.0000  <S**2>=2.000
      80 -> 87         0.16648
      82 -> 86         0.10033
      85 -> 87         0.64296

 Excited State   3:      Singlet-A      3.3809 eV  366.72 nm  f=0.0027  <S**2>=0.000
      85 -> 87         0.70568

 Excited State   4:      Triplet-A      3.3863 eV  366.13 nm  f=0.0000  <S**2>=2.000
      83 -> 86         0.21914
      84 -> 86         0.64908

 Excited State   5:      Singlet-A      3.5568 eV  348.58 nm  f=0.4886  <S**2>=0.000
      85 -> 86         0.68786

 Excited State   6:      Singlet-A      3.6900 eV  336.00 nm  f=0.0061  <S**2>=0.000
      83 -> 86         0.23461
      84 -> 86         0.64880

 The electronic state is 1-A.
 Alpha  occ. eigenvalues --  -19.14382 -14.48732 -14.35165 -10.25735 -10.25567
 Alpha  occ. eigenvalues --  -10.24733 -10.24454 -10.24280 -10.24147 -10.23392
 Alpha  occ. eigenvalues --  -10.23281 -10.23109 -10.23004 -10.22789 -10.22590
 Alpha  occ. eigenvalues --  -10.22254 -10.21743 -10.21649 -10.21392 -10.20834
 Alpha  occ. eigenvalues --  -10.20521 -10.20461 -10.20276 -10.20100 -10.19773
 Alpha  occ. eigenvalues --   -1.11878  -0.93772  -0.92147  -0.89519  -0.87750
 Alpha  occ. eigenvalues --   -0.86210  -0.82233  -0.80050  -0.79524  -0.77756
 Alpha  occ. eigenvalues --   -0.76689  -0.75699  -0.72751  -0.71033  -0.67174
 Alpha  occ. eigenvalues --   -0.65199  -0.64422  -0.62560  -0.61420  -0.60222
 Alpha  occ. eigenvalues --   -0.58045  -0.56879  -0.53443  -0.53119  -0.52228
 Alpha  occ. eigenvalues --   -0.50396  -0.49777  -0.48708  -0.48664  -0.47264
 Alpha  occ. eigenvalues --   -0.46689  -0.46171  -0.45270  -0.44952  -0.44488
 Alpha  occ. eigenvalues --   -0.43770  -0.43143  -0.42930  -0.42234  -0.41348
 Alpha  occ. eigenvalues --   -0.40378  -0.39990  -0.38879  -0.38482  -0.38052
 Alpha  occ. eigenvalues --   -0.37170  -0.36892  -0.36778  -0.36282  -0.35754
 Alpha  occ. eigenvalues --   -0.35141  -0.34400  -0.29659  -0.28412  -0.28146
 Alpha  occ. eigenvalues --   -0.27249  -0.27051  -0.26369  -0.26163  -0.21646
 Alpha virt. eigenvalues --   -0.08016  -0.07155  -0.04884  -0.03758  -0.01906
 Alpha virt. eigenvalues --   -0.01556  -0.01400   0.00113   0.00512   0.00863
 Alpha virt. eigenvalues --    0.01400   0.01707   0.01926   0.02163   0.02519

 Mulliken charges:
               1
     1  C   -0.558562
     2  C    0.201249
     3  C   -0.446830
     4  C   -0.307704
     5  C   -0.078825
     6  C    0.456815
     7  C   -0.052273
     8  C    0.136094
     9  C    0.187186
    10  C    0.182738
    11  C   -0.110117
    12  C   -0.110896
    13  C    0.148079
    14  C   -0.123219
    15  N   -0.526233
    16  C   -0.519330
    17  C    0.228737
    18  C    0.125682
    19  C   -0.055981
    20  C   -0.382208
    21  C   -0.077511
    22  C   -0.317293
    23  C   -0.047124
    24  N   -0.290297
    25  O    0.037483
    26  H    0.153091
    27  H    0.168001
    28  H    0.166365
    29  H    0.128977
    30  H    0.163446
    31  H    0.125604
    32  H    0.164179
    33  H    0.118003
    34  H    0.139758
    35  H    0.151776
    36  H    0.147635
    37  H    0.178010
    38  H    0.131271
    39  H    0.127242
    40  H    0.126702
    41  H    0.110278
 Sum of Mulliken charges =  -0.00000

 Dipole moment (field-independent basis, Debye):
    X=             -2.3337    Y=              1.0718    Z=             -6.3893  Tot=              6.8860
 Quadrupole moment (field-independent basis, Debye-Ang):
   XX=           -125.9889   YY=           -158.6058   ZZ=           -155.2005
   XY=             -1.5303   XZ=             -4.0022   YZ=            -18.6075

 Normal termination of Gaussian 16 at Wed Jul 30 16:23:45 2025.
