 Gaussian 16, Revision C.02,
 Gaussian 16:  ES64L-G16RevC.02  7-Dec-2021

 ----------------------------------------------------------
 # td=(50-50,nstates=3) b3lyp/6-31+g(d,p) geom=connectivity
 ----------------------------------------------------------

 -------------------
 Title Card Required
 -------------------
 Symbolic Z-matrix:
 Charge =  0 Multiplicity = 1

                         Standard orientation:
 ---------------------------------------------------------------------
 Center     Atomic      Atomic             Coordinates (Angstroms)
 Number     Number       Type             X           Y           Z
 ---------------------------------------------------------------------
      1          6           0       -4.966692   -3.263517    0.370811
      2          6           0       -5.228354   -1.746494    0.364016
      3          6           0       -6.228210   -1.413887   -0.770783
      4          6           0       -5.841862   -1.336292    1.725498
      5          6           0       -3.940727   -0.968977    0.140729
      6          6           0       -2.697161   -1.452922   -0.033193
      7          6           0       -1.541730   -0.583062   -0.237399
      8          6           0       -0.292220   -1.082398   -0.412427
      9          6           0        0.942390   -0.232731   -0.612607
     10          6           0        2.134501   -1.034601   -1.052463
     11          6           0        2.493079   -2.356703   -0.829697
     12          8           0        1.984791   -3.341497   -0.327472
     13          8           0        3.911944   -2.498678   -1.298961
     14          7           0        4.239851   -1.379021   -2.071389
     15          7           0        3.296302   -0.294835   -1.566773
     16          6           0        3.984297    0.721418   -0.713925
     17          6           0        4.114845    1.976692   -1.307302
     18          6           0        4.718637    3.029565   -0.621863
     19          6           0        5.189780    2.806211    0.669348
     20          6           0        5.054168    1.546151    1.255470
     21          6           0        4.449825    0.470319    0.590233
     22          6           0        4.321830   -0.887693    1.274310
     23          6           0        4.975537   -0.951944    2.582756
     24          7           0        5.488836   -1.008940    3.622606
     25          6           0       -1.874440    0.840321   -0.225358
     26          6           0       -3.138346    1.276601   -0.046230
     27          6           0       -3.629590    2.716892   -0.005153
     28          6           0       -2.472057    3.711243   -0.207201
     29          6           0       -4.674880    2.928422   -1.127919
     30          6           0       -4.289732    2.988163    1.369235
     31          8           0       -4.181954    0.396887    0.133460
     32          1           0       -4.280207   -3.553911    1.172682
     33          1           0       -5.910922   -3.793531    0.532933
     34          1           0       -4.550737   -3.608337   -0.581471
     35          1           0       -6.454628   -0.344778   -0.800821
     36          1           0       -7.166570   -1.957280   -0.613378
     37          1           0       -5.824656   -1.706128   -1.746283
     38          1           0       -5.159389   -1.571673    2.549192
     39          1           0       -6.059587   -0.265438    1.757263
     40          1           0       -6.778271   -1.880176    1.892456
     41          1           0       -2.538804   -2.524009   -0.021089
     42          1           0       -0.145653   -2.156932   -0.379650
     43          1           0        0.735002    0.544472   -1.371023
     44          1           0        1.165485    0.334896    0.313627
     45          1           0        3.740741    2.137106   -2.316974
     46          1           0        4.815696    4.001995   -1.093192
     47          1           0        5.663732    3.607138    1.227857
     48          1           0        5.430288    1.387544    2.260629
     49          1           0        3.265483   -1.146537    1.411808
     50          1           0        4.739684   -1.681250    0.644993
     51          1           0       -1.089715    1.573543   -0.353495
     52          1           0       -2.862225    4.733629   -0.172065
     53          1           0       -1.714229    3.617780    0.577696
     54          1           0       -1.984841    3.574867   -1.178537
     55          1           0       -5.050076    3.957483   -1.099998
     56          1           0       -5.525071    2.251730   -1.010991
     57          1           0       -4.231794    2.753321   -2.114356
     58          1           0       -5.131228    2.313345    1.545092
     59          1           0       -3.569096    2.855385    2.183371
     60          1           0       -4.662673    4.017703    1.407877
     61          1           0        3.040685    0.229284   -2.412277
     62          1           0        3.823074   -1.580025   -2.992501
 ---------------------------------------------------------------------

 SCF Done:  E(RB3LYP) =  -1361.15408864     A.U. after   19 cycles

 Excitation energies and oscillator strengths:

 Excited State   1:      Triplet-A      2.4292 eV  510.38 nm  f=0.0000  <S**2>=2.000
     110 ->120        -0.10558
     112 ->117        -0.10164
     113 ->115        -0.10496
     113 ->117         0.63978
     113 ->120         0.19353
     113 <-117         0.11341
 This state for optimization and/or second-order correction.
 Total Energy, E(TD-HF/TD-DFT) =  -1361.06481600
 Copying the excited state density for this state as the 1-particle RhoCI density.

 Excited State   2:      Triplet-A      2.6491 eV  468.03 nm  f=0.0000  <S**2>=2.000
     112 ->114         0.27790
     113 ->114         0.64729

 Excited State   3:      Singlet-A      2.6677 eV  464.76 nm  f=0.0002  <S**2>=0.000
     112 ->114         0.18909
     113 ->114         0.68029

 Excited State   4:      Triplet-A      2.8782 eV  430.77 nm  f=0.0000  <S**2>=2.000
     112 ->114         0.64176
     113 ->114        -0.28031

 Excited State   5:      Singlet-A      2.9535 eV  419.79 nm  f=0.0055  <S**2>=0.000
     112 ->114         0.67585
     113 ->114        -0.19129

 Excited State   6:      Singlet-A      3.0089 eV  412.06 nm  f=0.0073  <S**2>=0.000
     112 ->115         0.11575
     113 ->115         0.69457

 The electronic state is 1-A.
 Alpha  occ. eigenvalues --  -19.21411 -19.20619 -19.11758 -14.51623 -14.47075
 Alpha  occ. eigenvalues --  -14.34986 -10.29444 -10.28468 -10.26171 -10.25858
 Alpha  occ. eigenvalues --  -10.25300 -10.25155 -10.24923 -10.24370 -10.23931
 Alpha  occ. eigenvalues --  -10.23677 -10.23437 -10.22077 -10.21529 -10.21227
 Alpha  occ. eigenvalues --  -10.21186 -10.19736 -10.19011 -10.18948 -10.18642
 Alpha  occ. eigenvalues --  -10.18523 -10.18461 -10.18104 -10.18055 -10.18008
 Alpha  occ. eigenvalues --  -10.17172  -1.14778  -1.09386  -1.03721  -1.01034
 Alpha  occ. eigenvalues --   -0.92148  -0.90557  -0.84960  -0.84054  -0.83264
 Alpha  occ. eigenvalues --   -0.83030  -0.81998  -0.80493  -0.76697  -0.75600
 Alpha  occ. eigenvalues --   -0.75505  -0.71916  -0.70206  -0.69479  -0.69326
 Alpha  occ. eigenvalues --   -0.68989  -0.67750  -0.67243  -0.65006  -0.63726
 Alpha  occ. eigenvalues --   -0.61510  -0.60742  -0.59236  -0.56862  -0.55573
 Alpha  occ. eigenvalues --   -0.55077  -0.54328  -0.53127  -0.51856  -0.51338
 Alpha  occ. eigenvalues --   -0.50309  -0.48958  -0.48202  -0.47715  -0.47164
 Alpha  occ. eigenvalues --   -0.46877  -0.46740  -0.46273  -0.45850  -0.44631
 Alpha  occ. eigenvalues --   -0.44368  -0.43783  -0.43486  -0.43226  -0.43076
 Alpha  occ. eigenvalues --   -0.41624  -0.41105  -0.40582  -0.40210  -0.39857
 Alpha  occ. eigenvalues --   -0.39658  -0.39652  -0.39402  -0.39159  -0.38494
 Alpha  occ. eigenvalues --   -0.38360  -0.37726  -0.37582  -0.37215  -0.36928
 Alpha  occ. eigenvalues --   -0.36160  -0.35680  -0.35369  -0.34521  -0.34179
 Alpha  occ. eigenvalues --   -0.34022  -0.33670  -0.33550  -0.32761  -0.32526
 Alpha  occ. eigenvalues --   -0.31940  -0.30846  -0.29938  -0.28838  -0.26524
 Alpha  occ. eigenvalues --   -0.26024  -0.20491  -0.18447
 Alpha virt. eigenvalues --   -0.06819  -0.05707  -0.04629  -0.01803  -0.01340
 Alpha virt. eigenvalues --   -0.00528  -0.00213   0.00310   0.00510   0.00947
 Alpha virt. eigenvalues --    0.01112   0.01868   0.02001   0.02160   0.02408

 Mulliken charges:
               1
     1  C   -0.588061
     2  C    0.140132
     3  C   -0.466249
     4  C   -0.467640
     5  C    0.103960
     6  C   -0.108253
     7  C    0.225827
     8  C    0.379448
     9  C    0.204505
    10  C    0.073208
    11  C   -0.375502
    12  O   -0.461738
    13  O   -0.019294
    14  N   -0.605670
    15  N   -0.012665
    16  C    0.090862
    17  C   -0.153034
    18  C   -0.295452
    19  C   -0.249875
    20  C   -0.930105
    21  C    1.233175
    22  C   -0.248279
    23  C   -0.170815
    24  N   -0.512141
    25  C   -0.311069
    26  C    0.125804
    27  C    0.030696
    28  C   -0.554433
    29  C   -0.470595
    30  C   -0.468141
    31  O   -0.279701
    32  H    0.158305
    33  H    0.148674
    34  H    0.156541
    35  H    0.155034
    36  H    0.145246
    37  H    0.153061
    38  H    0.154597
    39  H    0.154892
    40  H    0.145228
    41  H    0.131590
    42  H    0.154614
    43  H    0.118681
    44  H    0.151083
    45  H    0.112053
    46  H    0.142288
    47  H    0.144249
    48  H    0.160856
    49  H    0.240079
    50  H    0.250344
    51  H    0.113948
    52  H    0.149950
    53  H    0.154142
    54  H    0.150642
    55  H    0.145230
    56  H    0.160036
    57  H    0.151297
    58  H    0.159835
    59  H    0.153436
    60  H    0.145191
    61  H    0.347955
    62  H    0.332019
 Sum of Mulliken charges =  -0.00000

 Dipole moment (field-independent basis, Debye):
    X=             -1.5487    Y=              8.3781    Z=             -5.3951  Tot=             10.0846
 Quadrupole moment (field-independent basis, Debye-Ang):
   XX=           -189.6479   YY=           -194.6146   ZZ=           -193.1549
   XY=             29.7055   XZ=            -26.8428   YZ=              0.9084

 Normal termination of Gaussian 16 at Thu Jul 31 13:57:05 2025.
