 Gaussian 16, Revision C.02,
 Gaussian 16:  ES64L-G16RevC.02  7-Dec-2021

 ----------------------------------------------------------
 # td=(50-50,nstates=3) b3lyp/6-31+g(d,p) geom=connectivity
 ----------------------------------------------------------

 -------------------
 Title Card Required
 -------------------
 Symbolic Z-matrix:
 Charge =  0 Multiplicity = 1

                         Standard orientation:
 ---------------------------------------------------------------------
 Center     Atomic      Atomic             Coordinates (Angstroms)
 Number     Number       Type             X           Y           Z
 ---------------------------------------------------------------------
      1          6           0       -2.882092   -1.098498    2.281388
      2          6           0       -3.360825   -0.250799    1.349664
      3          6           0       -4.718636    0.224850    1.456685
      4          7           0       -5.819208    0.589790    1.544565
      5          6           0       -2.590463    0.224035    0.188985
      6          6           0       -1.777570   -0.409246   -0.681195
      7          6           0       -1.427435   -1.878457   -0.719466
      8          6           0       -1.588855   -2.462814   -2.137756
      9          6           0       -0.040854   -2.216699   -0.102010
     10          6           0        1.195950   -1.609101   -0.801049
     11          6           0        2.466957   -2.123092   -0.196333
     12          7           0        3.407462   -1.398995    0.360932
     13          8           0        4.444584   -1.892754    0.944017
     14          6           0        3.359724    0.061965    0.364230
     15          6           0        3.189986    0.715613    1.584352
     16          6           0        3.191002    2.110988    1.609218
     17          6           0        3.381395    2.837315    0.428535
     18          6           0        3.574696    2.166436   -0.781770
     19          6           0        3.565391    0.768879   -0.819520
     20          6           0       -1.370998    0.617181   -1.712972
     21          6           0       -2.075273    1.885030   -1.252581
     22          8           0       -2.060506    2.989048   -1.722708
     23          8           0       -2.790880    1.577211   -0.109843
     24          1           0       -1.853186   -1.436319    2.254747
     25          1           0       -3.511641   -1.451402    3.090386
     26          1           0       -2.158063   -2.389033   -0.079093
     27          1           0       -1.392325   -3.539916   -2.127281
     28          1           0       -2.607916   -2.312160   -2.507948
     29          1           0       -0.902004   -2.008273   -2.858771
     30          1           0       -0.028679   -1.899155    0.947251
     31          1           0        0.055978   -3.310542   -0.094643
     32          1           0        1.180056   -1.872386   -1.868088
     33          1           0        1.165198   -0.519808   -0.740261
     34          1           0        2.657380   -3.191114   -0.146943
     35          1           0        3.072338    0.133650    2.492210
     36          1           0        3.049788    2.631276    2.551602
     37          1           0        3.385162    3.922645    0.453648
     38          1           0        3.738350    2.727567   -1.696751
     39          1           0        3.729167    0.233895   -1.749724
     40          1           0       -0.293803    0.808933   -1.772890
     41          1           0       -1.701762    0.367027   -2.728094
 ---------------------------------------------------------------------

 SCF Done:  E(RB3LYP) =  -1031.86597965     A.U. after   17 cycles

 Excitation energies and oscillator strengths:

 Excited State   1:      Triplet-A      2.1187 eV  585.19 nm  f=0.0000  <S**2>=2.000
      82 -> 84         0.62883
      82 -> 87         0.32816
      82 <- 84         0.15692
 This state for optimization and/or second-order correction.
 Total Energy, E(TD-HF/TD-DFT) =  -1031.78811868
 Copying the excited state density for this state as the 1-particle RhoCI density.

 Excited State   2:      Triplet-A      2.6635 eV  465.50 nm  f=0.0000  <S**2>=2.000
      76 -> 83         0.25202
      80 -> 83         0.62353

 Excited State   3:      Singlet-A      3.3606 eV  368.94 nm  f=0.0034  <S**2>=0.000
      82 -> 83         0.70654

 Excited State   4:      Triplet-A      3.3616 eV  368.82 nm  f=0.0000  <S**2>=2.000
      82 -> 83         0.69718

 Excited State   5:      Singlet-A      3.9211 eV  316.20 nm  f=0.0033  <S**2>=0.000
      81 -> 83         0.65289
      81 -> 84        -0.24070

 Excited State   6:      Singlet-A      4.0272 eV  307.87 nm  f=0.0077  <S**2>=0.000
      78 -> 84        -0.12266
      81 -> 83         0.26538
      81 -> 84         0.59639
      81 -> 87         0.20773

 The electronic state is 1-A.
 Alpha  occ. eigenvalues --  -19.23448 -19.17261 -19.13612 -14.49104 -14.36230
 Alpha  occ. eigenvalues --  -10.34876 -10.29400 -10.28109 -10.25922 -10.25343
 Alpha  occ. eigenvalues --  -10.25060 -10.24964 -10.24266 -10.24059 -10.24006
 Alpha  occ. eigenvalues --  -10.23066 -10.22646 -10.22609 -10.22383 -10.22277
 Alpha  occ. eigenvalues --  -10.22168 -10.22028 -10.21245  -1.14324  -1.11207
 Alpha  occ. eigenvalues --   -1.06324  -0.92954  -0.90054  -0.87982  -0.86980
 Alpha  occ. eigenvalues --   -0.85277  -0.81905  -0.79007  -0.77834  -0.76463
 Alpha  occ. eigenvalues --   -0.75268  -0.70229  -0.68453  -0.66814  -0.64311
 Alpha  occ. eigenvalues --   -0.64021  -0.61647  -0.59376  -0.58462  -0.55767
 Alpha  occ. eigenvalues --   -0.54556  -0.52321  -0.51862  -0.51157  -0.50423
 Alpha  occ. eigenvalues --   -0.50015  -0.48919  -0.48056  -0.47443  -0.46934
 Alpha  occ. eigenvalues --   -0.45445  -0.45264  -0.45004  -0.44451  -0.43471
 Alpha  occ. eigenvalues --   -0.43286  -0.42162  -0.41842  -0.41593  -0.40573
 Alpha  occ. eigenvalues --   -0.40040  -0.39281  -0.38651  -0.38270  -0.37848
 Alpha  occ. eigenvalues --   -0.37509  -0.37298  -0.36978  -0.36600  -0.35368
 Alpha  occ. eigenvalues --   -0.31540  -0.30247  -0.29123  -0.28345  -0.26386
 Alpha  occ. eigenvalues --   -0.25221  -0.23241
 Alpha virt. eigenvalues --   -0.09306  -0.05601  -0.04056  -0.03954  -0.03077
 Alpha virt. eigenvalues --   -0.02476  -0.01441  -0.00687  -0.00447  -0.00045
 Alpha virt. eigenvalues --    0.01061   0.01199   0.01551   0.01919   0.02230

 Mulliken charges:
               1
     1  C   -0.379859
     2  C    0.578268
     3  C    0.075214
     4  N   -0.494038
     5  C   -0.040221
     6  C    0.095833
     7  C    0.104052
     8  C   -0.728351
     9  C   -0.447320
    10  C    0.231048
    11  C   -0.350654
    12  N   -0.218320
    13  O   -0.114399
    14  C   -0.711771
    15  C    0.362620
    16  C   -0.181034
    17  C    0.002259
    18  C   -0.209514
    19  C    0.161340
    20  C   -0.190827
    21  C    0.408577
    22  O   -0.447009
    23  O   -0.258335
    24  H    0.153560
    25  H    0.170738
    26  H    0.141162
    27  H    0.152068
    28  H    0.161851
    29  H    0.149433
    30  H    0.136961
    31  H    0.150515
    32  H    0.157754
    33  H    0.145057
    34  H    0.158819
    35  H    0.145754
    36  H    0.136740
    37  H    0.133531
    38  H    0.134491
    39  H    0.130677
    40  H    0.190703
    41  H    0.202625
 Sum of Mulliken charges =  -0.00000

 Dipole moment (field-independent basis, Debye):
    X=              1.4073    Y=             -3.3931    Z=             -1.6381  Tot=              4.0221
 Quadrupole moment (field-independent basis, Debye-Ang):
   XX=           -194.7253   YY=           -141.4047   ZZ=           -127.0468
   XY=             33.0343   XZ=             -4.8664   YZ=              6.9652

 Normal termination of Gaussian 16 at Thu Jul 31 13:39:32 2025.
