 Gaussian 16, Revision C.02,
 Gaussian 16:  ES64L-G16RevC.02  7-Dec-2021

 ----------------------------------------------------------
 # td=(50-50,nstates=3) b3lyp/6-31+g(d,p) geom=connectivity
 ----------------------------------------------------------

 -------------------
 Title Card Required
 -------------------
 Symbolic Z-matrix:
 Charge =  0 Multiplicity = 1

                         Standard orientation:
 ---------------------------------------------------------------------
 Center     Atomic      Atomic             Coordinates (Angstroms)
 Number     Number       Type             X           Y           Z
 ---------------------------------------------------------------------
      1          6           0        3.370020   -0.000129   -0.214276
      2          6           0        1.936212   -0.000086    0.056456
      3          6           0        0.747592   -0.000131    0.275134
      4          6           0       -0.697146   -0.000028    0.549093
      5          6           0       -1.360802    1.217061    0.022995
      6          7           0       -1.871304    2.184559   -0.360981
      7          6           0       -1.361084   -1.216928    0.022969
      8          7           0       -1.871837   -2.184290   -0.361016
      9          1           0        3.846364    0.886571    0.216597
     10          1           0        3.846374   -0.886567    0.217109
     11          1           0        3.561299   -0.000433   -1.292231
     12          1           0       -0.860800   -0.000007    1.638279
 ---------------------------------------------------------------------

 SCF Done:  E(RB3LYP) =  -340.448762353     A.U. after   13 cycles

 Excitation energies and oscillator strengths:

 Excited State   1:      Triplet-A      4.9329 eV  251.34 nm  f=0.0000  <S**2>=2.000
      26 -> 30         0.50246
      26 -> 40         0.16973
      27 -> 28         0.21140
      27 -> 31        -0.20850
      27 -> 34        -0.31246
 This state for optimization and/or second-order correction.
 Total Energy, E(TD-HF/TD-DFT) =  -340.267480423
 Copying the excited state density for this state as the 1-particle RhoCI density.

 Excited State   2:      Triplet-A      5.5524 eV  223.30 nm  f=0.0000  <S**2>=2.000
      24 -> 29        -0.11885
      26 -> 28         0.23464
      26 -> 31        -0.20600
      26 -> 34        -0.23548
      27 -> 30         0.52280
      27 -> 40         0.12868

 Excited State   3:      Triplet-A      5.5701 eV  222.59 nm  f=0.0000  <S**2>=2.000
      22 -> 29        -0.11742
      26 -> 30         0.41982
      27 -> 28        -0.28897
      27 -> 31         0.24373
      27 -> 34         0.32068

 Excited State   4:      Singlet-A      6.2429 eV  198.60 nm  f=0.0008  <S**2>=0.000
      26 -> 28        -0.17118
      26 -> 31         0.10053
      26 -> 34         0.10190
      27 -> 30         0.65787
      27 -> 40         0.10245

 Excited State   5:      Singlet-A      6.4181 eV  193.18 nm  f=0.0005  <S**2>=0.000
      26 -> 30        -0.39478
      27 -> 28         0.53596
      27 -> 31        -0.15186
      27 -> 34        -0.13761

 Excited State   6:      Singlet-A      6.4429 eV  192.43 nm  f=0.0130  <S**2>=0.000
      26 -> 28         0.60653
      26 -> 31        -0.20281
      26 -> 34        -0.18338
      27 -> 30         0.21652

 The electronic state is 1-A.
 Alpha  occ. eigenvalues --  -14.37743 -14.37743 -10.33656 -10.27143 -10.27143
 Alpha  occ. eigenvalues --  -10.23867 -10.23764 -10.23132  -0.95316  -0.93797
 Alpha  occ. eigenvalues --   -0.87274  -0.81023  -0.73243  -0.61075  -0.58881
 Alpha  occ. eigenvalues --   -0.55078  -0.49197  -0.46082  -0.46032  -0.40147
 Alpha  occ. eigenvalues --   -0.39816  -0.37932  -0.37807  -0.36319  -0.36193
 Alpha  occ. eigenvalues --   -0.30594  -0.30396
 Alpha virt. eigenvalues --   -0.02957  -0.02765  -0.01974  -0.01394  -0.00062
 Alpha virt. eigenvalues --    0.00460   0.01151   0.02862   0.02968   0.03872
 Alpha virt. eigenvalues --    0.04979   0.05312   0.06525   0.07531   0.08207

 Mulliken charges:
               1
     1  C   -0.846057
     2  C    0.324680
     3  C    0.060515
     4  C    0.194535
     5  C    0.174496
     6  N   -0.447042
     7  C    0.174587
     8  N   -0.447045
     9  H    0.187542
    10  H    0.187543
    11  H    0.189741
    12  H    0.246505
 Sum of Mulliken charges =  -0.00000

 Dipole moment (field-independent basis, Debye):
    X=              4.6142    Y=             -0.0004    Z=              2.1166  Tot=              5.0765
 Quadrupole moment (field-independent basis, Debye-Ang):
   XX=            -42.8333   YY=            -59.9650   ZZ=            -44.2242
   XY=             -0.0011   XZ=             -4.8597   YZ=              0.0001

 Normal termination of Gaussian 16 at Wed Jul 30 16:08:52 2025.
