 Gaussian 16, Revision C.02,
 Gaussian 16:  ES64L-G16RevC.02  7-Dec-2021

 ----------------------------------------------------------
 # td=(50-50,nstates=3) b3lyp/6-31+g(d,p) geom=connectivity
 ----------------------------------------------------------

 -------------------
 Title Card Required
 -------------------
 Symbolic Z-matrix:
 Charge =  0 Multiplicity = 1

                         Standard orientation:
 ---------------------------------------------------------------------
 Center     Atomic      Atomic             Coordinates (Angstroms)
 Number     Number       Type             X           Y           Z
 ---------------------------------------------------------------------
      1          6           0        3.580211   -2.528188    2.233399
      2          6           0        2.517191   -1.891586    1.312741
      3          6           0        1.765336   -3.050042    0.609797
      4          6           0        1.543941   -1.096763    2.219217
      5          6           0        3.138419   -0.958673    0.257131
      6          6           0        4.490539   -0.775407    0.208928
      7          7           0        5.146317    0.010906   -0.714733
      8          6           0        6.583008    0.243614   -0.594584
      9          6           0        4.404701    0.660305   -1.670065
     10          6           0        3.055238    0.545225   -1.719303
     11          6           0        2.314480   -0.242365   -0.740007
     12          6           0        0.969370   -0.207730   -0.774558
     13          6           0       -0.276940   -0.452469   -1.140716
     14          6           0       -1.510175    0.154661   -0.615356
     15          6           0       -2.691969   -0.517644   -0.819666
     16          6           0       -3.906066   -0.187350   -0.131794
     17          6           0       -5.093156   -0.885631   -0.369776
     18          6           0       -6.283104   -0.618406    0.367957
     19          7           0       -7.251382   -0.391735    0.976553
     20          6           0       -5.173704   -1.905975   -1.361811
     21          7           0       -5.222992   -2.740464   -2.174509
     22          6           0       -3.839883    0.845622    0.876985
     23          6           0       -2.697597    1.554115    1.063555
     24          6           0       -1.530743    1.349976    0.228626
     25          6           0       -0.543368    2.334399    0.221768
     26          6           0        0.403012    2.573845   -0.820662
     27          7           0        1.117439    2.964906   -1.656215
     28          6           0       -0.544407    3.368254    1.215036
     29          7           0       -0.521008    4.198618    2.031866
     30          1           0        4.137975   -1.777111    2.803862
     31          1           0        3.080691   -3.179142    2.957443
     32          1           0        4.292278   -3.148177    1.677143
     33          1           0        0.959710   -2.688873   -0.031480
     34          1           0        1.323204   -3.716034    1.359245
     35          1           0        2.452357   -3.640890   -0.005830
     36          1           0        2.075420   -0.305092    2.758313
     37          1           0        0.735380   -0.633698    1.651107
     38          1           0        1.094049   -1.768570    2.958632
     39          1           0        5.150334   -1.261965    0.913348
     40          1           0        7.073447   -0.660768   -0.227098
     41          1           0        6.995138    0.483894   -1.576786
     42          1           0        6.798692    1.070821    0.092539
     43          1           0        4.959948    1.251981   -2.388616
     44          1           0        2.512370    1.062583   -2.497500
     45          1           0       -0.472936   -1.296076   -1.813314
     46          1           0       -2.689827   -1.389883   -1.466317
     47          1           0       -4.722937    1.068987    1.466020
     48          1           0       -2.679911    2.361675    1.787494
 ---------------------------------------------------------------------

 SCF Done:  E(RB3LYP) =  -1199.63735764     A.U. after   20 cycles

 Excitation energies and oscillator strengths:

 Excited State   1:      Triplet-A      0.1777 eV 6976.47 nm  f=0.0000  <S**2>=2.000
      97 ->100        -0.10311
      98 ->100         0.35107
      99 ->100         0.76152
      98 <-100         0.28761
      99 <-100         0.35861
 This state for optimization and/or second-order correction.
 Total Energy, E(TD-HF/TD-DFT) =  -1199.63082664
 Copying the excited state density for this state as the 1-particle RhoCI density.

 Excited State   2:      Singlet-A      0.6916 eV 1792.79 nm  f=0.0465  <S**2>=0.000
      99 ->100         0.70955
      99 <-100        -0.12190

 Excited State   3:      Triplet-A      0.7757 eV 1598.43 nm  f=0.0000  <S**2>=2.000
      97 ->100        -0.20195
      98 ->100         0.68412
      99 ->100        -0.22169
      97 <-100        -0.10125
      98 <-100         0.23796

 Excited State   4:      Triplet-A      1.7309 eV  716.29 nm  f=0.0000  <S**2>=2.000
      97 ->100         0.66594
      98 ->100         0.18145

 Excited State   5:      Singlet-A      2.0840 eV  594.92 nm  f=0.1706  <S**2>=0.000
      97 ->100         0.46966
      98 ->100         0.51910

 Excited State   6:      Singlet-A      2.7235 eV  455.24 nm  f=0.2821  <S**2>=0.000
      97 ->100        -0.38904
      98 ->100         0.32613
      99 ->101         0.48640

 The electronic state is 1-A.
 Alpha  occ. eigenvalues --  -14.42773 -14.37356 -14.36714 -14.36654 -14.36628
 Alpha  occ. eigenvalues --  -10.30163 -10.29055 -10.27836 -10.27353 -10.26582
 Alpha  occ. eigenvalues --  -10.26556 -10.26341 -10.26147 -10.26022 -10.26003
 Alpha  occ. eigenvalues --  -10.25975 -10.25936 -10.24801 -10.24512 -10.24499
 Alpha  occ. eigenvalues --  -10.23933 -10.23178 -10.23149 -10.23042 -10.21792
 Alpha  occ. eigenvalues --  -10.21666 -10.19864 -10.19152 -10.19048  -1.01807
 Alpha  occ. eigenvalues --   -0.94975  -0.94310  -0.93019  -0.92690  -0.91805
 Alpha  occ. eigenvalues --   -0.87484  -0.87160  -0.83938  -0.83007  -0.81980
 Alpha  occ. eigenvalues --   -0.79060  -0.78577  -0.75602  -0.74082  -0.70879
 Alpha  occ. eigenvalues --   -0.70250  -0.68950  -0.67158  -0.66959  -0.65824
 Alpha  occ. eigenvalues --   -0.62043  -0.59809  -0.58288  -0.58154  -0.56847
 Alpha  occ. eigenvalues --   -0.55496  -0.53481  -0.52869  -0.51303  -0.50113
 Alpha  occ. eigenvalues --   -0.48834  -0.48589  -0.47934  -0.47155  -0.46263
 Alpha  occ. eigenvalues --   -0.45954  -0.45435  -0.44922  -0.44157  -0.43835
 Alpha  occ. eigenvalues --   -0.43322  -0.42914  -0.41876  -0.40774  -0.40250
 Alpha  occ. eigenvalues --   -0.40039  -0.39843  -0.39615  -0.39466  -0.39184
 Alpha  occ. eigenvalues --   -0.38775  -0.38563  -0.38388  -0.37262  -0.36793
 Alpha  occ. eigenvalues --   -0.36603  -0.36397  -0.36141  -0.35600  -0.35492
 Alpha  occ. eigenvalues --   -0.35305  -0.34807  -0.33341  -0.32711  -0.32316
 Alpha  occ. eigenvalues --   -0.29473  -0.27109  -0.24793  -0.20248
 Alpha virt. eigenvalues --   -0.16241  -0.06985  -0.05494  -0.04861  -0.03814
 Alpha virt. eigenvalues --   -0.02672  -0.02357  -0.02129  -0.00796  -0.00236
 Alpha virt. eigenvalues --    0.00244   0.00483   0.00912   0.01377   0.01533

 Mulliken charges:
               1
     1  C   -0.363806
     2  C    0.079254
     3  C   -0.500302
     4  C   -0.525014
     5  C   -0.181272
     6  C    0.028858
     7  N    0.042013
     8  C   -0.209911
     9  C    0.149183
    10  C   -0.606066
    11  C    0.059960
    12  C   -0.158751
    13  C   -0.173295
    14  C   -0.209940
    15  C   -0.070975
    16  C    1.430022
    17  C    0.897101
    18  C   -0.091328
    19  N   -0.482407
    20  C   -0.599058
    21  N   -0.475124
    22  C   -0.477435
    23  C   -0.459356
    24  C    0.908642
    25  C    0.988746
    26  C   -0.821733
    27  N   -0.414063
    28  C   -0.200205
    29  N   -0.448576
    30  H    0.148538
    31  H    0.157584
    32  H    0.147768
    33  H    0.150410
    34  H    0.146983
    35  H    0.149125
    36  H    0.149651
    37  H    0.150285
    38  H    0.146877
    39  H    0.127963
    40  H    0.156198
    41  H    0.156542
    42  H    0.174526
    43  H    0.142924
    44  H    0.160502
    45  H    0.133477
    46  H    0.152358
    47  H    0.167768
    48  H    0.165359
 Sum of Mulliken charges =  -0.00000

 Dipole moment (field-independent basis, Debye):
    X=             11.7828    Y=             -2.2091    Z=              0.6516  Tot=             12.0058
 Quadrupole moment (field-independent basis, Debye-Ang):
   XX=           -172.0577   YY=           -198.1472   ZZ=           -181.0515
   XY=            -17.6007   XZ=             -5.1815   YZ=            -12.0026

 Normal termination of Gaussian 16 at Thu Jul 31 13:50:41 2025.
