 Gaussian 16, Revision C.02,
 Gaussian 16:  ES64L-G16RevC.02  7-Dec-2021

 ----------------------------------------------------------
 # td=(50-50,nstates=3) b3lyp/6-31+g(d,p) geom=connectivity
 ----------------------------------------------------------

 -------------------
 Title Card Required
 -------------------
 Symbolic Z-matrix:
 Charge =  0 Multiplicity = 1

                         Standard orientation:
 ---------------------------------------------------------------------
 Center     Atomic      Atomic             Coordinates (Angstroms)
 Number     Number       Type             X           Y           Z
 ---------------------------------------------------------------------
      1          6           0       10.383893   -0.629974    0.662712
      2          6           0        8.868106   -0.736939    0.864912
      3          6           0        8.077283    0.322235    0.085167
      4          6           0        6.560223    0.219791    0.285572
      5          6           0        5.779154    1.290711   -0.504954
      6          6           0        4.290650    1.249672   -0.299244
      7          6           0        3.502406    2.136924    0.394566
      8          6           0        2.125100    1.780405    0.424078
      9          6           0        1.847281    0.617132   -0.261022
     10          6           0        0.548283   -0.008670   -0.460665
     11          6           0       -0.642216    0.619817   -0.558078
     12          6           0       -1.852718   -0.255949   -0.679803
     13          6           0       -2.771908   -0.146880    0.627950
     14          6           0       -3.360882    1.244012    0.625965
     15          6           0       -4.643541    1.489384    0.319137
     16         17           0       -5.228805    3.136564    0.225446
     17          6           0       -5.597857    0.395991    0.074988
     18          7           0       -6.782082    0.697262   -0.353567
     19          8           0       -7.571881   -0.438339   -0.541069
     20          6           0       -5.144543   -0.951277    0.421008
     21          6           0       -3.859474   -1.185849    0.731270
     22         17           0       -3.389304   -2.740252    1.384232
     23          6           0       -1.343709   -1.676917   -0.975893
     24          8           0       -1.996268   -2.587857   -1.415077
     25         16           0        0.434880   -1.792993   -0.615182
     26         16           0        3.319491   -0.053210   -0.940549
     27          1           0       10.917577   -1.398652    1.231813
     28          1           0       10.652490   -0.751379   -0.393393
     29          1           0       10.759589    0.346946    0.989533
     30          1           0        8.634340   -0.646860    1.934667
     31          1           0        8.528210   -1.736731    0.561758
     32          1           0        8.310462    0.231896   -0.985907
     33          1           0        8.418167    1.323189    0.388088
     34          1           0        6.317836    0.317507    1.351908
     35          1           0        6.216558   -0.777954   -0.017871
     36          1           0        6.013950    1.190887   -1.573193
     37          1           0        6.125813    2.287578   -0.205779
     38          1           0        3.905683    3.018411    0.881845
     39          1           0        1.365605    2.346041    0.951826
     40          1           0       -0.717668    1.701173   -0.559878
     41          1           0       -2.490071    0.021487   -1.527589
     42          1           0       -2.098301   -0.257928    1.485279
     43          1           0       -2.687186    2.071802    0.817715
     44          1           0       -8.416971   -0.066397   -0.829065
     45          1           0       -5.891584   -1.732053    0.483550
 ---------------------------------------------------------------------

 SCF Done:  E(RB3LYP) =  -2657.39950210     A.U. after   18 cycles

 Excitation energies and oscillator strengths:

 Excited State   1:      Triplet-A      2.2296 eV  556.08 nm  f=0.0000  <S**2>=2.000
     107 ->115        -0.11292
     110 ->112         0.56066
     110 ->113         0.22459
     111 ->112        -0.31565
     110 <-112         0.11214
 This state for optimization and/or second-order correction.
 Total Energy, E(TD-HF/TD-DFT) =  -2657.31756614
 Copying the excited state density for this state as the 1-particle RhoCI density.

 Excited State   2:      Triplet-A      2.4755 eV  500.85 nm  f=0.0000  <S**2>=2.000
     110 ->112        -0.21334
     111 ->112        -0.33590
     111 ->113         0.54165
     111 ->114         0.10106

 Excited State   3:      Triplet-A      3.2282 eV  384.07 nm  f=0.0000  <S**2>=2.000
     107 ->112         0.46027
     107 ->113         0.14987
     108 ->112         0.31771
     110 ->115        -0.27687
     111 ->115         0.10448

 Excited State   4:      Singlet-A      3.3376 eV  371.48 nm  f=0.1809  <S**2>=0.000
     111 ->112         0.69400

 Excited State   5:      Singlet-A      3.9695 eV  312.34 nm  f=0.2651  <S**2>=0.000
     106 ->112         0.12078
     106 ->114         0.10438
     108 ->112         0.10050
     110 ->112         0.38574
     111 ->113         0.50455
     111 ->114        -0.15408

 Excited State   6:      Singlet-A      4.1348 eV  299.86 nm  f=0.0031  <S**2>=0.000
     106 ->112        -0.20092
     106 ->114        -0.11847
     108 ->112        -0.11230
     109 ->112         0.46855
     109 ->113        -0.11618
     110 ->112        -0.17472
     111 ->113         0.36079

 The electronic state is 1-A.
 Alpha  occ. eigenvalues -- -101.56746-101.56440 -88.92677 -88.91638 -19.22013
 Alpha  occ. eigenvalues --  -19.17808 -14.40938 -10.32316 -10.28176 -10.27871
 Alpha  occ. eigenvalues --  -10.26211 -10.25973 -10.25601 -10.24747 -10.24512
 Alpha  occ. eigenvalues --  -10.24039 -10.23142 -10.22409 -10.21881 -10.21517
 Alpha  occ. eigenvalues --  -10.21349 -10.20900 -10.19837 -10.19297 -10.19144
 Alpha  occ. eigenvalues --  -10.18300  -9.48207  -9.47899  -7.98585  -7.97673
 Alpha  occ. eigenvalues --   -7.24622  -7.24339  -7.23650  -7.23608  -7.23337
 Alpha  occ. eigenvalues --   -7.23281  -5.95010  -5.94641  -5.94294  -5.94104
 Alpha  occ. eigenvalues --   -5.93783  -5.93273  -1.11003  -1.08094  -0.93129
 Alpha  occ. eigenvalues --   -0.90758  -0.89808  -0.87948  -0.86677  -0.83449
 Alpha  occ. eigenvalues --   -0.82045  -0.79144  -0.77857  -0.75805  -0.75106
 Alpha  occ. eigenvalues --   -0.74906  -0.72663  -0.70709  -0.67737  -0.64390
 Alpha  occ. eigenvalues --   -0.62340  -0.60693  -0.60674  -0.58871  -0.56747
 Alpha  occ. eigenvalues --   -0.55506  -0.54809  -0.54112  -0.52861  -0.52036
 Alpha  occ. eigenvalues --   -0.50587  -0.49113  -0.48007  -0.47761  -0.47199
 Alpha  occ. eigenvalues --   -0.46469  -0.45647  -0.45324  -0.44650  -0.44501
 Alpha  occ. eigenvalues --   -0.44101  -0.43962  -0.43063  -0.42479  -0.41421
 Alpha  occ. eigenvalues --   -0.41033  -0.40287  -0.39986  -0.39385  -0.38687
 Alpha  occ. eigenvalues --   -0.38121  -0.37834  -0.37414  -0.36868  -0.36497
 Alpha  occ. eigenvalues --   -0.35664  -0.34643  -0.34124  -0.33948  -0.33404
 Alpha  occ. eigenvalues --   -0.33244  -0.32987  -0.32396  -0.31986  -0.29897
 Alpha  occ. eigenvalues --   -0.28370  -0.27036  -0.26858  -0.26137  -0.24755
 Alpha  occ. eigenvalues --   -0.22715
 Alpha virt. eigenvalues --   -0.08654  -0.06242  -0.04624  -0.03114  -0.02228
 Alpha virt. eigenvalues --   -0.01111  -0.00284   0.00137   0.00344   0.00602
 Alpha virt. eigenvalues --    0.00862   0.01176   0.01403   0.01673   0.01806

 Mulliken charges:
               1
     1  C   -0.645081
     2  C   -0.142971
     3  C   -0.348976
     4  C   -0.239494
     5  C   -0.141699
     6  C    0.030793
     7  C   -0.145420
     8  C   -0.098646
     9  C    0.022570
    10  C    0.093298
    11  C   -0.683198
    12  C    0.060939
    13  C    0.229745
    14  C   -1.288507
    15  C    0.932274
    16  Cl   0.204727
    17  C   -0.758896
    18  N   -0.364909
    19  O   -0.196397
    20  C    0.837194
    21  C   -0.648864
    22  Cl   0.216132
    23  C   -0.124331
    24  O   -0.299493
    25  S    0.364972
    26  S    0.094036
    27  H    0.146140
    28  H    0.146044
    29  H    0.145524
    30  H    0.139302
    31  H    0.139644
    32  H    0.135970
    33  H    0.135407
    34  H    0.146567
    35  H    0.145233
    36  H    0.156251
    37  H    0.147233
    38  H    0.129496
    39  H    0.129353
    40  H    0.138298
    41  H    0.187572
    42  H    0.175291
    43  H    0.147468
    44  H    0.375816
    45  H    0.173592
 Sum of Mulliken charges =  -0.00000

 Dipole moment (field-independent basis, Debye):
    X=              3.2230    Y=              2.9465    Z=              1.1018  Tot=              4.5038
 Quadrupole moment (field-independent basis, Debye-Ang):
   XX=           -159.9523   YY=           -191.9389   ZZ=           -186.1402
   XY=              4.6303   XZ=              2.3407   YZ=             -1.0888

 Normal termination of Gaussian 16 at Fri Sep 19 06:26:27 2025.
