 Gaussian 16, Revision C.02,
 Gaussian 16:  ES64L-G16RevC.02  7-Dec-2021

 ----------------------------------------------------------
 # td=(50-50,nstates=3) b3lyp/6-31+g(d,p) geom=connectivity
 ----------------------------------------------------------

 -------------------
 Title Card Required
 -------------------
 Symbolic Z-matrix:
 Charge =  0 Multiplicity = 1

                         Standard orientation:
 ---------------------------------------------------------------------
 Center     Atomic      Atomic             Coordinates (Angstroms)
 Number     Number       Type             X           Y           Z
 ---------------------------------------------------------------------
      1          6           0       -2.280058    2.029231    1.745544
      2          6           0       -2.512969    1.513018    0.523319
      3          6           0       -3.020360    2.362429   -0.526080
      4          7           0       -3.412719    3.055383   -1.373653
      5          6           0       -2.265132    0.104455    0.171513
      6          6           0       -1.214978   -0.709315    0.389331
      7          6           0        0.092349   -0.401597    1.070060
      8          6           0        0.251301   -1.174361    2.394008
      9          6           0        1.286767   -0.678699    0.115746
     10          7           0        2.545236   -0.170194    0.664563
     11          6           0        3.745892   -0.953407    0.338578
     12          6           0        4.294685   -0.660700   -1.061317
     13          8           0        4.548085    0.735409   -1.217776
     14          6           0        3.366579    1.507837   -1.003175
     15          6           0        2.796160    1.255996    0.397425
     16          6           0       -1.560835   -2.039428   -0.235874
     17          6           0       -2.940506   -1.802332   -0.834565
     18          8           0       -3.655631   -2.549874   -1.443091
     19          8           0       -3.302643   -0.496995   -0.554515
     20          1           0       -1.938186    1.399659    2.559012
     21          1           0       -2.438600    3.082658    1.947852
     22          1           0        0.101617    0.669637    1.301123
     23          1           0        1.222997   -0.943519    2.838138
     24          1           0       -0.535176   -0.909423    3.108172
     25          1           0        0.202335   -2.257555    2.230274
     26          1           0        1.388199   -1.762592   -0.015092
     27          1           0        1.049663   -0.263393   -0.878515
     28          1           0        4.520662   -0.698560    1.074080
     29          1           0        3.523522   -2.020473    0.450575
     30          1           0        5.251269   -1.166688   -1.223161
     31          1           0        3.588753   -0.998845   -1.839150
     32          1           0        3.657488    2.555465   -1.123894
     33          1           0        2.623263    1.266989   -1.781299
     34          1           0        3.517548    1.617994    1.141361
     35          1           0        1.870493    1.825137    0.536487
     36          1           0       -0.870079   -2.352280   -1.027821
     37          1           0       -1.615254   -2.867617    0.481464
 ---------------------------------------------------------------------

 SCF Done:  E(RB3LYP) =  -879.482149557     A.U. after   15 cycles

 Excitation energies and oscillator strengths:

 Excited State   1:      Triplet-A      2.7022 eV  458.83 nm  f=0.0000  <S**2>=2.000
      66 -> 71        -0.26205
      69 -> 71         0.58451
      70 -> 71         0.22341
 This state for optimization and/or second-order correction.
 Total Energy, E(TD-HF/TD-DFT) =  -879.382846662
 Copying the excited state density for this state as the 1-particle RhoCI density.

 Excited State   2:      Singlet-A      3.1008 eV  399.85 nm  f=0.0041  <S**2>=0.000
      70 -> 71         0.70614

 Excited State   3:      Triplet-A      3.1248 eV  396.77 nm  f=0.0000  <S**2>=2.000
      69 -> 71        -0.19138
      70 -> 71         0.66943

 Excited State   4:      Triplet-A      3.6635 eV  338.43 nm  f=0.0000  <S**2>=2.000
      66 -> 71         0.50863
      67 -> 71        -0.19606
      69 -> 71         0.17699
      69 -> 72         0.31916
      69 -> 75        -0.11754

 Excited State   5:      Singlet-A      4.0649 eV  305.01 nm  f=0.0761  <S**2>=0.000
      66 -> 71         0.10585
      69 -> 71         0.69053

 Excited State   6:      Singlet-A      4.5173 eV  274.46 nm  f=0.0056  <S**2>=0.000
      70 -> 72         0.70360

 The electronic state is 1-A.
 Alpha  occ. eigenvalues --  -19.23076 -19.16931 -19.16846 -14.36067 -14.35125
 Alpha  occ. eigenvalues --  -10.34550 -10.28918 -10.27820 -10.25172 -10.24814
 Alpha  occ. eigenvalues --  -10.24564 -10.24547 -10.23921 -10.23841 -10.23559
 Alpha  occ. eigenvalues --  -10.22908 -10.22881 -10.22867 -10.20074  -1.13911
 Alpha  occ. eigenvalues --   -1.05960  -1.05015  -0.94194  -0.92777  -0.87109
 Alpha  occ. eigenvalues --   -0.84753  -0.79805  -0.78675  -0.75083  -0.72836
 Alpha  occ. eigenvalues --   -0.68920  -0.67497  -0.66999  -0.64280  -0.61737
 Alpha  occ. eigenvalues --   -0.58366  -0.57340  -0.55855  -0.52118  -0.51450
 Alpha  occ. eigenvalues --   -0.50231  -0.49774  -0.48908  -0.48259  -0.47702
 Alpha  occ. eigenvalues --   -0.47316  -0.46546  -0.46206  -0.44537  -0.43324
 Alpha  occ. eigenvalues --   -0.42554  -0.42259  -0.41279  -0.40886  -0.40231
 Alpha  occ. eigenvalues --   -0.40042  -0.38429  -0.38019  -0.37862  -0.37398
 Alpha  occ. eigenvalues --   -0.37230  -0.36736  -0.35505  -0.35160  -0.32967
 Alpha  occ. eigenvalues --   -0.31256  -0.29920  -0.28990  -0.26060  -0.22273
 Alpha virt. eigenvalues --   -0.08944  -0.03778  -0.01944  -0.01011  -0.00484
 Alpha virt. eigenvalues --   -0.00049   0.00362   0.01446   0.01721   0.02174
 Alpha virt. eigenvalues --    0.02354   0.02618   0.03061   0.03545   0.04189

 Mulliken charges:
               1
     1  C   -0.283782
     2  C    0.022666
     3  C   -0.022596
     4  N   -0.495340
     5  C   -0.596332
     6  C    0.601795
     7  C    1.304950
     8  C   -0.463861
     9  C   -1.363196
    10  N   -0.067093
    11  C    0.019323
    12  C   -0.103006
    13  O   -0.338747
    14  C   -0.104265
    15  C   -0.049553
    16  C   -0.630983
    17  C    0.652437
    18  O   -0.465130
    19  O   -0.269024
    20  H    0.160396
    21  H    0.168165
    22  H    0.115701
    23  H    0.177601
    24  H    0.140711
    25  H    0.143209
    26  H    0.129833
    27  H    0.140494
    28  H    0.149100
    29  H    0.126841
    30  H    0.138526
    31  H    0.125900
    32  H    0.140178
    33  H    0.126412
    34  H    0.147725
    35  H    0.125354
    36  H    0.196925
    37  H    0.198664
 Sum of Mulliken charges =  -0.00000

 Dipole moment (field-independent basis, Debye):
    X=              4.5358    Y=             -1.3713    Z=              4.9584  Tot=              6.8586
 Quadrupole moment (field-independent basis, Debye-Ang):
   XX=           -147.9494   YY=           -119.2421   ZZ=           -118.0332
   XY=             -5.2305   XZ=            -14.9403   YZ=              6.3809

 Normal termination of Gaussian 16 at Wed Jul 30 16:18:14 2025.
