 Gaussian 16, Revision C.02,
 Gaussian 16:  ES64L-G16RevC.02  7-Dec-2021

 ----------------------------------------------------------
 # td=(50-50,nstates=3) b3lyp/6-31+g(d,p) geom=connectivity
 ----------------------------------------------------------

 -------------------
 Title Card Required
 -------------------
 Symbolic Z-matrix:
 Charge =  0 Multiplicity = 1

                         Standard orientation:
 ---------------------------------------------------------------------
 Center     Atomic      Atomic             Coordinates (Angstroms)
 Number     Number       Type             X           Y           Z
 ---------------------------------------------------------------------
      1          6           0       -6.238978    0.327270   -0.339571
      2          6           0       -5.076027    0.102529    0.312568
      3          6           0       -4.957595    0.334399    1.728302
      4          7           0       -4.859966    0.522299    2.871560
      5          6           0       -3.902018   -0.378106   -0.380945
      6          6           0       -2.612355   -0.728793   -0.150369
      7          6           0       -1.666660   -0.843597    1.005789
      8          6           0       -1.120178   -2.281285    1.132615
      9          6           0       -0.564114    0.251015    0.982949
     10          6           0        0.482606    0.161293   -0.149165
     11          7           0        1.487458   -0.874187    0.054488
     12          6           0        2.634805   -0.254488    0.017433
     13          7           0        3.846890   -0.851402    0.167049
     14          6           0        3.899072   -2.297037    0.393939
     15          6           0        3.927445   -3.110792   -0.904953
     16          6           0        5.103691   -0.104034    0.097931
     17          6           0        5.625549    0.339920    1.469561
     18          7           0        2.599598    1.159802   -0.195575
     19          6           0        1.337255    1.421876   -0.286712
     20         16           0        0.660784    3.007811   -0.558277
     21          6           0        2.172243    4.029018   -0.651934
     22          6           0       -2.558456   -1.025398   -1.617621
     23          8           0       -1.838781   -1.409208   -2.480776
     24          8           0       -3.951802   -0.624133   -1.776467
     25          1           0       -6.304137    0.145644   -1.406243
     26          1           0       -7.115956    0.688225    0.185052
     27          1           0       -2.262206   -0.633661    1.902781
     28          1           0       -0.461474   -2.353135    2.003022
     29          1           0       -1.944693   -2.990339    1.260833
     30          1           0       -0.532710   -2.567736    0.258103
     31          1           0       -1.061646    1.226806    0.929558
     32          1           0       -0.027674    0.215909    1.938383
     33          1           0       -0.029718   -0.007725   -1.108724
     34          1           0        4.791912   -2.505427    0.994188
     35          1           0        3.025959   -2.577379    0.988835
     36          1           0        3.984286   -4.181966   -0.680055
     37          1           0        3.019183   -2.929155   -1.485898
     38          1           0        4.794518   -2.848339   -1.521260
     39          1           0        5.842033   -0.747618   -0.395496
     40          1           0        4.953630    0.766998   -0.541494
     41          1           0        6.589747    0.850351    1.362540
     42          1           0        4.920581    1.031322    1.941208
     43          1           0        5.769128   -0.514039    2.140526
     44          1           0        1.835649    5.054233   -0.818914
     45          1           0        2.730718    3.962391    0.282507
     46          1           0        2.799420    3.698074   -1.480637
 ---------------------------------------------------------------------

 SCF Done:  E(RB3LYP) =  -1428.68184461     A.U. after   17 cycles

 Excitation energies and oscillator strengths:

 Excited State   1:      Triplet-A      1.8814 eV  659.00 nm  f=0.0000  <S**2>=2.000
      85 -> 93        -0.14271
      89 -> 93         0.17180
      90 -> 93         0.65567
      92 -> 93        -0.12006
      90 <- 93         0.12676
 This state for optimization and/or second-order correction.
 Total Energy, E(TD-HF/TD-DFT) =  -1428.61270422
 Copying the excited state density for this state as the 1-particle RhoCI density.

 Excited State   2:      Singlet-A      2.1516 eV  576.25 nm  f=0.0021  <S**2>=0.000
      92 -> 93         0.70606

 Excited State   3:      Triplet-A      2.1541 eV  575.58 nm  f=0.0000  <S**2>=2.000
      90 -> 93         0.11254
      92 -> 93         0.69554

 Excited State   4:      Triplet-A      3.1567 eV  392.77 nm  f=0.0000  <S**2>=2.000
      91 -> 93         0.66264
      92 -> 95        -0.21566

 Excited State   5:      Singlet-A      3.1646 eV  391.79 nm  f=0.0001  <S**2>=0.000
      91 -> 93         0.70616

 Excited State   6:      Singlet-A      3.3869 eV  366.07 nm  f=0.1903  <S**2>=0.000
      85 -> 93         0.16284
      89 -> 93         0.10642
      90 -> 93         0.67180

 The electronic state is 1-A.
 Alpha  occ. eigenvalues --  -88.91150 -19.20729 -19.19354 -14.37217 -14.36080
 Alpha  occ. eigenvalues --  -14.33998 -14.29723 -10.35223 -10.30506 -10.28469
 Alpha  occ. eigenvalues --  -10.27437 -10.26864 -10.26366 -10.25688 -10.23590
 Alpha  occ. eigenvalues --  -10.23061 -10.22739 -10.22410 -10.22240 -10.21953
 Alpha  occ. eigenvalues --  -10.20394 -10.18312 -10.17993 -10.17679  -7.97127
 Alpha  occ. eigenvalues --   -5.93641  -5.93206  -5.92694  -1.13244  -1.07523
 Alpha  occ. eigenvalues --   -1.00796  -0.93980  -0.93878  -0.86683  -0.86437
 Alpha  occ. eigenvalues --   -0.83953  -0.81146  -0.78097  -0.76883  -0.75444
 Alpha  occ. eigenvalues --   -0.72668  -0.70495  -0.69047  -0.66200  -0.65720
 Alpha  occ. eigenvalues --   -0.64346  -0.63300  -0.60183  -0.56269  -0.54903
 Alpha  occ. eigenvalues --   -0.53792  -0.53331  -0.51524  -0.50561  -0.49585
 Alpha  occ. eigenvalues --   -0.49260  -0.48620  -0.46911  -0.46707  -0.45516
 Alpha  occ. eigenvalues --   -0.45137  -0.44395  -0.44214  -0.43512  -0.42866
 Alpha  occ. eigenvalues --   -0.42734  -0.42139  -0.41989  -0.41336  -0.40652
 Alpha  occ. eigenvalues --   -0.40027  -0.39163  -0.39107  -0.37769  -0.37676
 Alpha  occ. eigenvalues --   -0.37243  -0.37004  -0.36597  -0.36158  -0.35552
 Alpha  occ. eigenvalues --   -0.35151  -0.34948  -0.34491  -0.34269  -0.31999
 Alpha  occ. eigenvalues --   -0.31601  -0.31078  -0.29466  -0.26039  -0.25877
 Alpha  occ. eigenvalues --   -0.24834  -0.21131
 Alpha virt. eigenvalues --   -0.11623  -0.04388  -0.03723  -0.01377  -0.01104
 Alpha virt. eigenvalues --   -0.00132   0.00446   0.01129   0.01407   0.01579
 Alpha virt. eigenvalues --    0.02235   0.02362   0.02865   0.03463   0.03704

 Mulliken charges:
               1
     1  C   -0.081450
     2  C    1.206777
     3  C   -0.893889
     4  N   -0.446301
     5  C    0.166811
     6  C   -0.249383
     7  C    0.140367
     8  C   -0.574381
     9  C   -0.248683
    10  C   -0.280158
    11  N   -0.255239
    12  C    0.001252
    13  N   -0.123938
    14  C   -0.074691
    15  C   -0.440052
    16  C   -0.073836
    17  C   -0.410158
    18  N   -0.165621
    19  C   -0.300215
    20  S    0.305370
    21  C   -0.581460
    22  C    0.631108
    23  O   -0.392401
    24  O   -0.394909
    25  H    0.191663
    26  H    0.175907
    27  H    0.145009
    28  H    0.150165
    29  H    0.139321
    30  H    0.192861
    31  H    0.147041
    32  H    0.151812
    33  H    0.163602
    34  H    0.130168
    35  H    0.169733
    36  H    0.139266
    37  H    0.175486
    38  H    0.138346
    39  H    0.135329
    40  H    0.166665
    41  H    0.139771
    42  H    0.159354
    43  H    0.141939
    44  H    0.175611
    45  H    0.202431
    46  H    0.203600
 Sum of Mulliken charges =  -0.00000

 Dipole moment (field-independent basis, Debye):
    X=              0.8486    Y=              1.8034    Z=              0.1439  Tot=              1.9983
 Quadrupole moment (field-independent basis, Debye-Ang):
   XX=           -121.6410   YY=           -144.2021   ZZ=           -170.4865
   XY=             -0.0969   XZ=              8.0037   YZ=             -8.3367

 Normal termination of Gaussian 16 at Wed Jul 30 16:28:32 2025.
