 Gaussian 16, Revision C.02,
 Gaussian 16:  ES64L-G16RevC.02  7-Dec-2021

 ----------------------------------------------------------
 # td=(50-50,nstates=3) b3lyp/6-31+g(d,p) geom=connectivity
 ----------------------------------------------------------

 -------------------
 Title Card Required
 -------------------
 Symbolic Z-matrix:
 Charge =  0 Multiplicity = 1

                         Standard orientation:
 ---------------------------------------------------------------------
 Center     Atomic      Atomic             Coordinates (Angstroms)
 Number     Number       Type             X           Y           Z
 ---------------------------------------------------------------------
      1          6           0        0.539899    2.883725   -0.512205
      2          6           0        1.530648    1.775355   -0.233327
      3          6           0        2.808495    2.103091    0.237538
      4          6           0        3.755650    1.122061    0.534258
      5          6           0        3.428474   -0.216870    0.361168
      6          6           0        2.164734   -0.541158   -0.137072
      7          7           0        1.924603   -1.990094   -0.319322
      8          8           0        1.383402   -2.372306   -1.358178
      9          8           0        2.319904   -2.738857    0.575326
     10          6           0        1.183236    0.417990   -0.444032
     11          6           0       -0.210142    0.069277   -0.929516
     12          6           0       -1.278353   -0.000074    0.156157
     13          6           0       -0.966160   -0.058789    1.522637
     14          6           0       -1.957499   -0.151576    2.501572
     15          6           0       -3.302092   -0.186498    2.131431
     16          6           0       -3.647104   -0.131431    0.780166
     17          6           0       -2.641941   -0.041886   -0.182597
     18         17           0       -3.131709    0.012088   -1.877742
     19          1           0        0.956126    3.852036   -0.223914
     20          1           0        0.282957    2.937268   -1.576860
     21          1           0       -0.395157    2.741166    0.039004
     22          1           0        3.061599    3.150114    0.379349
     23          1           0        4.738821    1.399360    0.900753
     24          1           0        4.128242   -1.010158    0.595193
     25          1           0       -0.515900    0.815139   -1.668717
     26          1           0       -0.196350   -0.879458   -1.468456
     27          1           0        0.075594   -0.033102    1.825905
     28          1           0       -1.675338   -0.198665    3.548883
     29          1           0       -4.081895   -0.258552    2.883370
     30          1           0       -4.685399   -0.159982    0.468115
 ---------------------------------------------------------------------

 SCF Done:  E(RB3LYP) =  -1206.06717101     A.U. after   17 cycles

 Excitation energies and oscillator strengths:

 Excited State   1:      Triplet-A      2.8910 eV  428.87 nm  f=0.0000  <S**2>=2.000
      61 -> 69         0.67834
      61 -> 71         0.12114
      61 -> 73        -0.10288
      61 <- 69         0.16059
 This state for optimization and/or second-order correction.
 Total Energy, E(TD-HF/TD-DFT) =  -1205.96092963
 Copying the excited state density for this state as the 1-particle RhoCI density.

 Excited State   2:      Triplet-A      2.9904 eV  414.61 nm  f=0.0000  <S**2>=2.000
      61 -> 69         0.10299
      64 -> 69        -0.27968
      65 -> 69         0.53239
      66 -> 69         0.27034
      66 -> 70        -0.11124

 Excited State   3:      Triplet-A      3.5162 eV  352.60 nm  f=0.0000  <S**2>=2.000
      62 -> 69        -0.11477
      63 -> 69         0.20013
      64 -> 69         0.18989
      66 -> 69         0.38898
      67 -> 69        -0.32030
      68 -> 69         0.31661

 Excited State   4:      Singlet-A      3.6013 eV  344.27 nm  f=0.0128  <S**2>=0.000
      64 -> 69         0.28802
      65 -> 69        -0.29278
      66 -> 69        -0.22274
      67 -> 69        -0.13322
      68 -> 69         0.50009

 Excited State   5:      Singlet-A      3.7337 eV  332.06 nm  f=0.0145  <S**2>=0.000
      63 -> 69         0.13475
      64 -> 69        -0.22918
      65 -> 69         0.33734
      66 -> 69         0.26603
      68 -> 69         0.48508

 Excited State   6:      Singlet-A      3.9111 eV  317.01 nm  f=0.0198  <S**2>=0.000
      63 -> 69        -0.10815
      66 -> 69        -0.28885
      67 -> 69         0.61298

 The electronic state is 1-A.
 Alpha  occ. eigenvalues -- -101.56072 -19.20262 -19.20216 -14.58657 -10.26765
 Alpha  occ. eigenvalues --  -10.26424 -10.24040 -10.23276 -10.22909 -10.22753
 Alpha  occ. eigenvalues --  -10.22318 -10.22216 -10.21506 -10.21378 -10.21175
 Alpha  occ. eigenvalues --  -10.21073 -10.20964 -10.20534  -9.47556  -7.23951
 Alpha  occ. eigenvalues --   -7.23006  -7.22966  -1.24085  -1.06827  -0.90918
 Alpha  occ. eigenvalues --   -0.89999  -0.84656  -0.82598  -0.81895  -0.78013
 Alpha  occ. eigenvalues --   -0.74913  -0.73396  -0.70845  -0.69307  -0.63259
 Alpha  occ. eigenvalues --   -0.61269  -0.60196  -0.60016  -0.55816  -0.54600
 Alpha  occ. eigenvalues --   -0.52798  -0.52644  -0.51506  -0.49542  -0.48736
 Alpha  occ. eigenvalues --   -0.47168  -0.45194  -0.45015  -0.43870  -0.43801
 Alpha  occ. eigenvalues --   -0.43178  -0.42623  -0.41009  -0.39683  -0.38939
 Alpha  occ. eigenvalues --   -0.38208  -0.37726  -0.37049  -0.36126  -0.34313
 Alpha  occ. eigenvalues --   -0.32605  -0.32278  -0.32072  -0.31478  -0.28000
 Alpha  occ. eigenvalues --   -0.27307  -0.26727  -0.25553
 Alpha virt. eigenvalues --   -0.09943  -0.04137  -0.03308  -0.02755  -0.02504
 Alpha virt. eigenvalues --   -0.00628  -0.00123   0.00346   0.01464   0.02150
 Alpha virt. eigenvalues --    0.02495   0.03294   0.03684   0.04299   0.04633

 Mulliken charges:
               1
     1  C   -0.755497
     2  C   -0.083553
     3  C    0.133793
     4  C   -0.104255
     5  C    0.031745
     6  C   -0.182252
     7  N   -0.352219
     8  O    0.007486
     9  O   -0.003411
    10  C    0.744560
    11  C   -1.370378
    12  C    0.474971
    13  C   -0.688642
    14  C   -0.214162
    15  C   -0.130196
    16  C   -0.262600
    17  C    0.661610
    18  Cl   0.252193
    19  H    0.148679
    20  H    0.171514
    21  H    0.181284
    22  H    0.129134
    23  H    0.138008
    24  H    0.160279
    25  H    0.162620
    26  H    0.215195
    27  H    0.124896
    28  H    0.131591
    29  H    0.132225
    30  H    0.145384
 Sum of Mulliken charges =  -0.00000

 Dipole moment (field-independent basis, Debye):
    X=              0.6881    Y=              4.6511    Z=              1.8745  Tot=              5.0616
 Quadrupole moment (field-independent basis, Debye-Ang):
   XX=           -101.6684   YY=           -120.0376   ZZ=           -111.9569
   XY=              8.9672   XZ=             -2.9615   YZ=             -1.7240

 Normal termination of Gaussian 16 at Fri Sep 19 06:32:14 2025.
