 Gaussian 16, Revision C.02,
 Gaussian 16:  ES64L-G16RevC.02  7-Dec-2021

 ----------------------------------------------------------
 # td=(50-50,nstates=3) b3lyp/6-31+g(d,p) geom=connectivity
 ----------------------------------------------------------

 -------------------
 Title Card Required
 -------------------
 Symbolic Z-matrix:
 Charge =  0 Multiplicity = 1

                         Standard orientation:
 ---------------------------------------------------------------------
 Center     Atomic      Atomic             Coordinates (Angstroms)
 Number     Number       Type             X           Y           Z
 ---------------------------------------------------------------------
      1          6           0       -3.419692    0.903674    3.540797
      2          6           0       -3.263924    0.024176    2.336593
      3          6           0       -4.177954   -0.106747    1.362586
      4          6           0       -4.063910   -0.985441    0.181965
      5          6           0       -5.192699   -1.723734   -0.216784
      6          6           0       -5.135967   -2.639005   -1.264921
      7          6           0       -3.936317   -2.842022   -1.954421
      8          6           0       -2.814512   -2.094524   -1.607773
      9          6           0       -2.872600   -1.151704   -0.565738
     10          6           0       -1.688895   -0.311800   -0.350989
     11          8           0       -0.512708   -0.963048   -0.050231
     12          6           0        0.482359   -0.014664    0.021800
     13          6           0        1.776424   -0.470704    0.036763
     14          8           0        2.811288    0.402120   -0.182741
     15          6           0        3.984264   -0.299068   -0.155466
     16          6           0        5.179213    0.345410   -0.389283
     17          6           0        6.386819   -0.411526   -0.369657
     18          7           0        7.358589   -1.053732   -0.348690
     19          6           0        5.240673    1.736885   -0.679997
     20          7           0        5.296198    2.870082   -0.942939
     21          6           0        3.701330   -1.675217    0.101300
     22          6           0        2.344355   -1.786541    0.204385
     23         35           0        1.409372   -3.365131    0.530321
     24          6           0       -0.102674    1.310474   -0.107330
     25          6           0        0.508158    2.532039    0.176161
     26          6           0       -0.061555    3.796495   -0.162220
     27          7           0       -0.424257    4.873706   -0.420229
     28          6           0        1.686507    2.624178    0.970976
     29          7           0        2.595404    2.722038    1.694486
     30          6           0       -1.478093    1.031799   -0.449054
     31         35           0       -2.819752    2.267909   -0.854515
     32          1           0       -2.597398    1.627505    3.605657
     33          1           0       -4.362125    1.458591    3.515436
     34          1           0       -3.389379    0.313583    4.465504
     35          1           0       -2.341693   -0.554541    2.280806
     36          1           0       -5.124175    0.425765    1.460067
     37          1           0       -6.120779   -1.590552    0.332019
     38          1           0       -6.024234   -3.200436   -1.538855
     39          1           0       -3.882167   -3.556855   -2.769330
     40          1           0       -1.890290   -2.211278   -2.165455
     41          1           0        4.437522   -2.460828    0.188166
 ---------------------------------------------------------------------

 SCF Done:  E(RB3LYP) =  -6395.26943466     A.U. after   18 cycles

 Excitation energies and oscillator strengths:

 Excited State   1:      Triplet-A      0.5550 eV 2233.78 nm  f=0.0000  <S**2>=2.000
     129 ->132         0.11410
     130 ->132        -0.18978
     131 ->132         0.73650
     131 <-132         0.30606
 This state for optimization and/or second-order correction.
 Total Energy, E(TD-HF/TD-DFT) =  -6395.24903727
 Copying the excited state density for this state as the 1-particle RhoCI density.

 Excited State   2:      Triplet-A      1.6034 eV  773.26 nm  f=0.0000  <S**2>=2.000
     128 ->132         0.12541
     129 ->132        -0.45359
     130 ->132         0.46719
     131 ->132         0.16809
     131 ->133        -0.14714

 Excited State   3:      Singlet-A      1.8938 eV  654.69 nm  f=0.0534  <S**2>=0.000
     130 ->132         0.39850
     131 ->132         0.58019

 Excited State   4:      Triplet-A      2.0935 eV  592.24 nm  f=0.0000  <S**2>=2.000
     128 ->132        -0.11578
     129 ->132         0.46284
     130 ->132         0.49982

 Excited State   5:      Singlet-A      2.1407 eV  579.17 nm  f=0.1525  <S**2>=0.000
     129 ->132         0.26625
     130 ->132         0.55555
     131 ->132        -0.35208

 Excited State   6:      Singlet-A      2.6107 eV  474.91 nm  f=0.4380  <S**2>=0.000
     129 ->132         0.63609
     130 ->132        -0.17496
     131 ->132         0.23104

 The electronic state is 1-A.
 Alpha  occ. eigenvalues -- -482.99328-482.97189 -61.95142 -61.92941 -56.46672
 Alpha  occ. eigenvalues --  -56.46249 -56.46225 -56.44395 -56.43982 -56.43952
 Alpha  occ. eigenvalues --  -19.28604 -19.27574 -14.37429 -14.36846 -14.36610
 Alpha  occ. eigenvalues --  -14.36388 -10.34287 -10.34089 -10.33391 -10.32441
 Alpha  occ. eigenvalues --  -10.32102 -10.30122 -10.29864 -10.29637 -10.28898
 Alpha  occ. eigenvalues --  -10.27411 -10.26861 -10.26129 -10.26024 -10.25820
 Alpha  occ. eigenvalues --  -10.24965 -10.24595 -10.23630 -10.23146 -10.22892
 Alpha  occ. eigenvalues --  -10.22775 -10.22532 -10.22009 -10.20756  -8.65359
 Alpha  occ. eigenvalues --   -8.63017  -6.60602  -6.59242  -6.59126  -6.58235
 Alpha  occ. eigenvalues --   -6.56832  -6.56793  -2.72136  -2.71762  -2.71671
 Alpha  occ. eigenvalues --   -2.70585  -2.70583  -2.69762  -2.69359  -2.69330
 Alpha  occ. eigenvalues --   -2.68210  -2.68210  -1.19099  -1.17471  -0.94759
 Alpha  occ. eigenvalues --   -0.94367  -0.93033  -0.92497  -0.91779  -0.90917
 Alpha  occ. eigenvalues --   -0.90468  -0.88961  -0.86034  -0.83300  -0.82844
 Alpha  occ. eigenvalues --   -0.82544  -0.80515  -0.79150  -0.78535  -0.75055
 Alpha  occ. eigenvalues --   -0.71357  -0.68860  -0.68408  -0.65907  -0.64611
 Alpha  occ. eigenvalues --   -0.63779  -0.63051  -0.61693  -0.59265  -0.58962
 Alpha  occ. eigenvalues --   -0.58257  -0.57089  -0.54641  -0.54268  -0.53172
 Alpha  occ. eigenvalues --   -0.51576  -0.50768  -0.50485  -0.49218  -0.47724
 Alpha  occ. eigenvalues --   -0.47033  -0.46486  -0.45851  -0.45381  -0.45034
 Alpha  occ. eigenvalues --   -0.44138  -0.43583  -0.43173  -0.42712  -0.41684
 Alpha  occ. eigenvalues --   -0.40638  -0.40402  -0.39709  -0.39221  -0.39078
 Alpha  occ. eigenvalues --   -0.38893  -0.38796  -0.38442  -0.38176  -0.37364
 Alpha  occ. eigenvalues --   -0.37256  -0.37019  -0.36745  -0.36191  -0.35697
 Alpha  occ. eigenvalues --   -0.35399  -0.34967  -0.34007  -0.32952  -0.32274
 Alpha  occ. eigenvalues --   -0.31573  -0.30725  -0.29960  -0.27482  -0.25911
 Alpha  occ. eigenvalues --   -0.24490
 Alpha virt. eigenvalues --   -0.16839  -0.09618  -0.06979  -0.05566  -0.05391
 Alpha virt. eigenvalues --   -0.03614  -0.03261  -0.02844  -0.02516  -0.02317
 Alpha virt. eigenvalues --   -0.01291  -0.01014  -0.00619  -0.00011   0.00092

 Mulliken charges:
               1
     1  C   -0.702323
     2  C    0.186197
     3  C    0.153708
     4  C   -0.143645
     5  C   -0.157434
     6  C    0.098146
     7  C   -0.121838
     8  C    0.054962
     9  C   -0.499191
    10  C   -0.398323
    11  O   -0.131191
    12  C   -0.161139
    13  C   -0.118686
    14  O   -0.273954
    15  C    0.805637
    16  C    0.742660
    17  C   -0.105375
    18  N   -0.489977
    19  C   -0.546830
    20  N   -0.423629
    21  C    0.119402
    22  C    0.046665
    23  Br   0.140451
    24  C    1.332185
    25  C    0.652746
    26  C   -0.024144
    27  N   -0.451717
    28  C   -0.707012
    29  N   -0.384275
    30  C   -0.095605
    31  Br   0.120268
    32  H    0.163815
    33  H    0.153877
    34  H    0.161999
    35  H    0.122999
    36  H    0.130094
    37  H    0.137480
    38  H    0.137601
    39  H    0.138138
    40  H    0.139500
    41  H    0.197759
 Sum of Mulliken charges =  -0.00000

 Dipole moment (field-independent basis, Debye):
    X=             -9.1649    Y=             -9.2645    Z=              0.2346  Tot=             13.0339
 Quadrupole moment (field-independent basis, Debye-Ang):
   XX=           -230.6189   YY=           -230.4692   ZZ=           -198.7776
   XY=             -9.1662   XZ=             -1.0282   YZ=              6.3163

 Normal termination of Gaussian 16 at Wed Jul 30 16:32:47 2025.
