 Gaussian 16, Revision C.02,
 Gaussian 16:  ES64L-G16RevC.02  7-Dec-2021

 ----------------------------------------------------------
 # td=(50-50,nstates=3) b3lyp/6-31+g(d,p) geom=connectivity
 ----------------------------------------------------------

 -------------------
 Title Card Required
 -------------------
 Symbolic Z-matrix:
 Charge =  0 Multiplicity = 1

                         Standard orientation:
 ---------------------------------------------------------------------
 Center     Atomic      Atomic             Coordinates (Angstroms)
 Number     Number       Type             X           Y           Z
 ---------------------------------------------------------------------
      1          6           0       -0.216903    3.074405   -0.325231
      2          6           0       -0.223694    1.731976   -0.167193
      3          6           0        1.014799    1.013702   -0.094513
      4          6           0        2.062852    0.387229   -0.032521
      5         14           0        3.660901   -0.535789    0.080684
      6          6           0        3.363439   -2.310203   -0.494994
      7          6           0        4.923297    0.320186   -1.032959
      8          6           0        4.235530   -0.509112    1.879536
      9          6           0       -1.486045    0.939182   -0.084925
     10          6           0       -1.513785   -0.401877   -0.504668
     11          6           0       -2.690519   -1.143225   -0.462702
     12          6           0       -3.873305   -0.556500    0.017751
     13          6           0       -5.088768   -1.316308    0.069530
     14          7           0       -6.075858   -1.932196    0.110436
     15          6           0       -3.854123    0.778585    0.459143
     16          6           0       -2.672659    1.509869    0.409823
     17          1           0       -1.136169    3.640484   -0.428135
     18          1           0        0.716334    3.623300   -0.375245
     19          1           0        4.289980   -2.893948   -0.440860
     20          1           0        2.615157   -2.810021    0.129654
     21          1           0        3.010130   -2.337295   -1.531549
     22          1           0        5.887874   -0.199848   -0.994751
     23          1           0        5.087370    1.357285   -0.721019
     24          1           0        4.588075    0.332643   -2.075647
     25          1           0        4.388708    0.516982    2.230763
     26          1           0        3.498946   -0.982202    2.537713
     27          1           0        5.183610   -1.048825    1.989968
     28          1           0       -0.603249   -0.862094   -0.873109
     29          1           0       -2.700163   -2.174666   -0.798942
     30          1           0       -4.760940    1.228737    0.849099
     31          1           0       -2.667952    2.528450    0.782962
 ---------------------------------------------------------------------

 SCF Done:  E(RB3LYP) =  -886.780434171     A.U. after   16 cycles

 Excitation energies and oscillator strengths:

 Excited State   1:      Triplet-A      2.4845 eV  499.03 nm  f=0.0000  <S**2>=2.000
      60 -> 61         0.65102
      60 -> 62        -0.13130
      60 -> 63         0.14349
      60 <- 61         0.10663
 This state for optimization and/or second-order correction.
 Total Energy, E(TD-HF/TD-DFT) =  -886.689129598
 Copying the excited state density for this state as the 1-particle RhoCI density.

 Excited State   2:      Triplet-A      3.3733 eV  367.55 nm  f=0.0000  <S**2>=2.000
      57 -> 62        -0.15341
      57 -> 63        -0.13623
      58 -> 61         0.25656
      59 -> 61         0.45353
      60 -> 62        -0.27656
      60 -> 63         0.25093

 Excited State   3:      Triplet-A      4.0662 eV  304.91 nm  f=0.0000  <S**2>=2.000
      57 -> 61         0.51784
      57 -> 63        -0.14070
      58 -> 61         0.31962
      59 -> 61        -0.22475
      60 -> 62         0.10986
      60 -> 63         0.13918

 Excited State   4:      Singlet-A      4.1996 eV  295.23 nm  f=0.1887  <S**2>=0.000
      60 -> 61         0.67805
      60 -> 63        -0.10074

 Excited State   5:      Singlet-A      4.4357 eV  279.51 nm  f=0.0223  <S**2>=0.000
      58 -> 61        -0.39670
      59 -> 61         0.52956
      59 -> 62        -0.10403
      60 -> 62         0.12077

 Excited State   6:      Singlet-A      4.6393 eV  267.25 nm  f=0.0099  <S**2>=0.000
      57 -> 61         0.53776
      58 -> 62         0.11353
      59 -> 63         0.11052
      60 -> 62        -0.34072
      60 -> 63        -0.23381

 The electronic state is 1-A.
 Alpha  occ. eigenvalues --  -66.14704 -14.34863 -10.25148 -10.24674 -10.24024
 Alpha  occ. eigenvalues --  -10.23826 -10.23049 -10.22964 -10.22425 -10.22139
 Alpha  occ. eigenvalues --  -10.21733 -10.20732 -10.18478 -10.17583 -10.17504
 Alpha  occ. eigenvalues --  -10.17478  -5.28986  -3.64989  -3.64814  -3.64811
 Alpha  occ. eigenvalues --   -0.91862  -0.89418  -0.84403  -0.78205  -0.78067
 Alpha  occ. eigenvalues --   -0.74553  -0.72171  -0.68987  -0.68917  -0.67484
 Alpha  occ. eigenvalues --   -0.64477  -0.61585  -0.57476  -0.54011  -0.51057
 Alpha  occ. eigenvalues --   -0.49798  -0.47461  -0.46507  -0.45294  -0.43232
 Alpha  occ. eigenvalues --   -0.42764  -0.41881  -0.41785  -0.41694  -0.40295
 Alpha  occ. eigenvalues --   -0.40257  -0.39249  -0.39182  -0.38239  -0.37369
 Alpha  occ. eigenvalues --   -0.36888  -0.36132  -0.34294  -0.34059  -0.32344
 Alpha  occ. eigenvalues --   -0.31829  -0.28701  -0.28345  -0.27586  -0.24793
 Alpha virt. eigenvalues --   -0.08428  -0.04342  -0.03699  -0.01614  -0.00450
 Alpha virt. eigenvalues --    0.00001   0.00752   0.01425   0.01719   0.02046
 Alpha virt. eigenvalues --    0.02660   0.03132   0.03781   0.03999   0.04419

 Mulliken charges:
               1
     1  C   -0.258197
     2  C    0.514915
     3  C    0.153025
     4  C   -0.861368
     5  Si   1.240846
     6  C   -0.688145
     7  C   -0.675869
     8  C   -0.672868
     9  C    0.267947
    10  C   -0.625349
    11  C   -0.281665
    12  C    0.347802
    13  C   -0.157683
    14  N   -0.532011
    15  C   -0.625731
    16  C    0.487998
    17  H    0.138634
    18  H    0.158029
    19  H    0.164272
    20  H    0.166702
    21  H    0.165964
    22  H    0.162248
    23  H    0.166810
    24  H    0.166992
    25  H    0.166430
    26  H    0.167459
    27  H    0.162094
    28  H    0.149944
    29  H    0.149137
    30  H    0.148687
    31  H    0.132952
 Sum of Mulliken charges =  -0.00000

 Dipole moment (field-independent basis, Debye):
    X=              4.6782    Y=              2.4522    Z=             -0.1366  Tot=              5.2837
 Quadrupole moment (field-independent basis, Debye-Ang):
   XX=           -129.2237   YY=            -99.6460   ZZ=           -105.9601
   XY=            -19.6195   XZ=             -0.4320   YZ=              2.2971

 Normal termination of Gaussian 16 at Wed Jul 30 17:16:41 2025.
