 Gaussian 16, Revision C.02,
 Gaussian 16:  ES64L-G16RevC.02  7-Dec-2021

 ----------------------------------------------------------
 # td=(50-50,nstates=3) b3lyp/6-31+g(d,p) geom=connectivity
 ----------------------------------------------------------

 -------------------
 Title Card Required
 -------------------
 Symbolic Z-matrix:
 Charge =  0 Multiplicity = 1

                         Standard orientation:
 ---------------------------------------------------------------------
 Center     Atomic      Atomic             Coordinates (Angstroms)
 Number     Number       Type             X           Y           Z
 ---------------------------------------------------------------------
      1          6           0       -0.434772    3.440776    0.028444
      2          6           0       -0.200621    2.105964    0.010832
      3          6           0        1.167753    1.627467   -0.032257
      4          6           0        1.510734    0.319824    0.003879
      5          6           0        2.972058   -0.160308   -0.034414
      6          6           0        3.946067    1.019123   -0.236074
      7          6           0        3.341501   -0.854158    1.302236
      8          6           0        3.177311   -1.144977   -1.213731
      9          6           0        0.413513   -0.679677    0.122455
     10          8           0        0.680232   -1.867932    0.314021
     11          6           0       -1.037271   -0.246045    0.017091
     12          6           0       -2.087639   -1.379492   -0.045372
     13          6           0       -1.745083   -2.330592   -1.227517
     14          6           0       -2.086287   -2.164713    1.295538
     15          6           0       -3.535667   -0.903501   -0.284580
     16          6           0       -1.288215    1.102194    0.013261
     17          6           0       -2.596647    1.703329    0.018636
     18          7           0       -3.574215    2.334318    0.043442
     19          1           0        0.397418    4.137264    0.012037
     20          1           0       -1.433331    3.860073    0.060502
     21          1           0        1.928434    2.398048   -0.087150
     22          1           0        4.968944    0.632772   -0.283995
     23          1           0        3.754206    1.557880   -1.170949
     24          1           0        3.908501    1.734974    0.592682
     25          1           0        4.393088   -1.162255    1.275012
     26          1           0        2.726801   -1.737266    1.478093
     27          1           0        3.216227   -0.165314    2.145538
     28          1           0        2.934812   -0.665867   -2.169393
     29          1           0        4.227867   -1.454257   -1.252470
     30          1           0        2.561853   -2.038513   -1.103798
     31          1           0       -2.513667   -3.108597   -1.286714
     32          1           0       -1.754071   -1.784925   -2.178276
     33          1           0       -0.777600   -2.814381   -1.106046
     34          1           0       -2.849190   -2.949821    1.246995
     35          1           0       -2.344068   -1.503116    2.130337
     36          1           0       -1.122242   -2.629645    1.496579
     37          1           0       -3.643738   -0.322190   -1.204642
     38          1           0       -4.165864   -1.792857   -0.386935
     39          1           0       -3.937150   -0.320070    0.545767
 ---------------------------------------------------------------------

 SCF Done:  E(RB3LYP) =  -752.332564178     A.U. after   18 cycles

 Excitation energies and oscillator strengths:

 Excited State   1:      Triplet-A      1.8007 eV  688.52 nm  f=0.0000  <S**2>=2.000
      64 -> 68        -0.11161
      66 -> 67         0.68990
      66 <- 67         0.16386
 This state for optimization and/or second-order correction.
 Total Energy, E(TD-HF/TD-DFT) =  -752.266388795
 Copying the excited state density for this state as the 1-particle RhoCI density.

 Excited State   2:      Triplet-A      2.3362 eV  530.70 nm  f=0.0000  <S**2>=2.000
      65 -> 67         0.68411

 Excited State   3:      Singlet-A      2.7211 eV  455.65 nm  f=0.0001  <S**2>=0.000
      65 -> 67         0.69096
      66 -> 67         0.11390

 Excited State   4:      Triplet-A      2.7858 eV  445.05 nm  f=0.0000  <S**2>=2.000
      64 -> 67         0.65564
      66 -> 68        -0.20168

 Excited State   5:      Singlet-A      3.6629 eV  338.48 nm  f=0.0258  <S**2>=0.000
      64 -> 67         0.60548
      66 -> 67         0.34854

 Excited State   6:      Singlet-A      4.0519 eV  305.99 nm  f=0.3062  <S**2>=0.000
      64 -> 67        -0.35295
      64 -> 68         0.15077
      66 -> 67         0.57055
      66 -> 68         0.12203

 The electronic state is 1-A.
 Alpha  occ. eigenvalues --  -19.15450 -14.35563 -10.29569 -10.26523 -10.24924
 Alpha  occ. eigenvalues --  -10.24764 -10.24639 -10.23158 -10.22738 -10.22551
 Alpha  occ. eigenvalues --  -10.22453 -10.22120 -10.18872 -10.18037 -10.17920
 Alpha  occ. eigenvalues --  -10.17892 -10.17848 -10.17829  -1.05527  -0.92929
 Alpha  occ. eigenvalues --   -0.88961  -0.84683  -0.82995  -0.78295  -0.77696
 Alpha  occ. eigenvalues --   -0.69927  -0.69714  -0.69082  -0.68983  -0.68075
 Alpha  occ. eigenvalues --   -0.65714  -0.62021  -0.56991  -0.56057  -0.53237
 Alpha  occ. eigenvalues --   -0.52841  -0.48892  -0.48052  -0.45663  -0.45500
 Alpha  occ. eigenvalues --   -0.44970  -0.44704  -0.44526  -0.43753  -0.42247
 Alpha  occ. eigenvalues --   -0.41623  -0.40834  -0.40254  -0.39621  -0.39366
 Alpha  occ. eigenvalues --   -0.38490  -0.38093  -0.37960  -0.37119  -0.36816
 Alpha  occ. eigenvalues --   -0.35975  -0.35097  -0.34954  -0.34832  -0.34428
 Alpha  occ. eigenvalues --   -0.33950  -0.33531  -0.32504  -0.28233  -0.26267
 Alpha  occ. eigenvalues --   -0.26108
 Alpha virt. eigenvalues --   -0.11873  -0.05060  -0.00935  -0.00774   0.00418
 Alpha virt. eigenvalues --    0.00702   0.01168   0.02261   0.02419   0.03087
 Alpha virt. eigenvalues --    0.03161   0.03446   0.03749   0.04748   0.05019

 Mulliken charges:
               1
     1  C   -0.440476
     2  C    0.391117
     3  C   -0.323391
     4  C    0.715893
     5  C    0.304531
     6  C   -0.425672
     7  C   -0.529528
     8  C   -0.548942
     9  C   -0.270166
    10  O   -0.427794
    11  C    0.161960
    12  C    0.385125
    13  C   -0.529132
    14  C   -0.518455
    15  C   -0.437119
    16  C    0.283597
    17  C   -0.579804
    18  N   -0.481390
    19  H    0.151911
    20  H    0.171156
    21  H    0.133037
    22  H    0.153465
    23  H    0.150713
    24  H    0.146870
    25  H    0.142713
    26  H    0.183776
    27  H    0.141902
    28  H    0.142722
    29  H    0.143272
    30  H    0.179852
    31  H    0.144558
    32  H    0.145276
    33  H    0.181974
    34  H    0.145423
    35  H    0.146017
    36  H    0.184944
    37  H    0.161832
    38  H    0.149070
    39  H    0.169164
 Sum of Mulliken charges =  -0.00000

 Dipole moment (field-independent basis, Debye):
    X=              2.8618    Y=              0.9523    Z=             -0.4065  Tot=              3.0433
 Quadrupole moment (field-independent basis, Debye-Ang):
   XX=           -119.8058   YY=           -111.6659   ZZ=           -112.8578
   XY=             13.7689   XZ=             -0.1845   YZ=              0.8014

 Normal termination of Gaussian 16 at Wed Jul 30 16:33:47 2025.
