 Gaussian 16, Revision C.02,
 Gaussian 16:  ES64L-G16RevC.02  7-Dec-2021

 ----------------------------------------------------------
 # td=(50-50,nstates=3) b3lyp/6-31+g(d,p) geom=connectivity
 ----------------------------------------------------------

 -------------------
 Title Card Required
 -------------------
 Symbolic Z-matrix:
 Charge =  0 Multiplicity = 1

                         Standard orientation:
 ---------------------------------------------------------------------
 Center     Atomic      Atomic             Coordinates (Angstroms)
 Number     Number       Type             X           Y           Z
 ---------------------------------------------------------------------
      1          6           0        0.953913    3.088890    1.442171
      2          7           0        0.578815    2.201725    0.348886
      3          6           0        0.851135    2.657907   -1.004637
      4          7           0       -0.503082    1.443866    0.612783
      5          6           0       -1.193789    0.894404   -0.324984
      6          6           0       -2.291410   -0.060526    0.084752
      7          6           0       -3.566507    0.269414   -0.571787
      8          7           0       -4.568646    0.499858   -1.113205
      9          6           0       -1.947685   -1.562433   -0.222509
     10          7           0       -0.711330   -2.021601    0.378233
     11          6           0       -0.603739   -2.081873    1.827738
     12          7           0        0.380923   -1.850657   -0.397232
     13          6           0        1.570128   -1.914459    0.086904
     14          6           0        2.733339   -1.795741   -0.872713
     15          6           0        3.573415   -0.619095   -0.601062
     16          7           0        4.231652    0.311481   -0.377091
     17          1           0        0.759663    2.573640    2.383705
     18          1           0        2.020208    3.319647    1.372046
     19          1           0        0.381665    4.030280    1.431014
     20          1           0        1.008979    1.804251   -1.671205
     21          1           0        0.028393    3.272741   -1.407172
     22          1           0        1.767893    3.248675   -0.993936
     23          1           0       -1.002842    1.018693   -1.391228
     24          1           0       -2.436041    0.056003    1.165362
     25          1           0       -2.773967   -2.187336    0.133951
     26          1           0       -1.853118   -1.702250   -1.301086
     27          1           0       -0.171672   -1.162518    2.250324
     28          1           0       -1.601318   -2.230628    2.245712
     29          1           0        0.017643   -2.934440    2.125174
     30          1           0        1.800621   -2.047095    1.144414
     31          1           0        3.377414   -2.684180   -0.822890
     32          1           0        2.345365   -1.727107   -1.894041
 ---------------------------------------------------------------------

 SCF Done:  E(RB3LYP) =  -719.126723408     A.U. after   15 cycles

 Excitation energies and oscillator strengths:

 Excited State   1:      Triplet-A      3.2184 eV  385.23 nm  f=0.0000  <S**2>=2.000
      58 -> 61         0.16974
      58 -> 62        -0.14652
      59 -> 60         0.54659
      59 -> 61         0.22091
      59 -> 62        -0.23786
 This state for optimization and/or second-order correction.
 Total Energy, E(TD-HF/TD-DFT) =  -719.008448537
 Copying the excited state density for this state as the 1-particle RhoCI density.

 Excited State   2:      Triplet-A      3.3759 eV  367.26 nm  f=0.0000  <S**2>=2.000
      58 -> 60         0.54166
      58 -> 61        -0.18440
      58 -> 62         0.11034
      59 -> 61         0.24723
      59 -> 62        -0.20358

 Excited State   3:      Singlet-A      4.6668 eV  265.67 nm  f=0.0878  <S**2>=0.000
      59 -> 60         0.68884

 Excited State   4:      Triplet-A      4.7817 eV  259.29 nm  f=0.0000  <S**2>=2.000
      56 -> 60         0.18035
      58 -> 60        -0.28036
      59 -> 60        -0.36130
      59 -> 61         0.39331
      59 -> 62        -0.24037

 Excited State   5:      Singlet-A      4.9520 eV  250.37 nm  f=0.0239  <S**2>=0.000
      58 -> 60         0.50984
      58 -> 61         0.13626
      59 -> 61        -0.44603
      59 -> 62         0.10371

 Excited State   6:      Singlet-A      5.0865 eV  243.75 nm  f=0.0215  <S**2>=0.000
      58 -> 60         0.21603
      58 -> 62        -0.15344
      59 -> 61         0.37798
      59 -> 62         0.51142

 The electronic state is 1-A.
 Alpha  occ. eigenvalues --  -14.40580 -14.39495 -14.39353 -14.38446 -14.34863
 Alpha  occ. eigenvalues --  -14.34673 -10.25207 -10.25174 -10.25169 -10.24310
 Alpha  occ. eigenvalues --  -10.24265 -10.24015 -10.23838 -10.23291 -10.22807
 Alpha  occ. eigenvalues --  -10.22280  -1.03903  -1.02764  -0.91767  -0.91586
 Alpha  occ. eigenvalues --   -0.88419  -0.86440  -0.80791  -0.78625  -0.74208
 Alpha  occ. eigenvalues --   -0.73777  -0.69005  -0.66066  -0.58357  -0.57725
 Alpha  occ. eigenvalues --   -0.55971  -0.54494  -0.52733  -0.52604  -0.50287
 Alpha  occ. eigenvalues --   -0.49397  -0.48396  -0.47847  -0.46422  -0.45069
 Alpha  occ. eigenvalues --   -0.44383  -0.42914  -0.41835  -0.41632  -0.41177
 Alpha  occ. eigenvalues --   -0.39692  -0.39220  -0.38145  -0.37284  -0.36934
 Alpha  occ. eigenvalues --   -0.36263  -0.34153  -0.33949  -0.33739  -0.33443
 Alpha  occ. eigenvalues --   -0.30023  -0.29058  -0.23856  -0.22335
 Alpha virt. eigenvalues --   -0.03097  -0.01476  -0.01089  -0.00093   0.00400
 Alpha virt. eigenvalues --    0.00815   0.01600   0.01869   0.02181   0.02431
 Alpha virt. eigenvalues --    0.02695   0.03009   0.03329   0.03576   0.04046

 Mulliken charges:
               1
     1  C   -0.307532
     2  N    0.005259
     3  C   -0.360510
     4  N    0.002916
     5  C   -0.320249
     6  C    0.518912
     7  C   -0.297795
     8  N   -0.493857
     9  C   -0.425478
    10  N    0.135863
    11  C   -0.206326
    12  N   -0.143426
    13  C   -0.061819
    14  C   -0.421695
    15  C    0.284335
    16  N   -0.477622
    17  H    0.160270
    18  H    0.157488
    19  H    0.139142
    20  H    0.152040
    21  H    0.153456
    22  H    0.161212
    23  H    0.127309
    24  H    0.190231
    25  H    0.158140
    26  H    0.175350
    27  H    0.176223
    28  H    0.152785
    29  H    0.146497
    30  H    0.125461
    31  H    0.192341
    32  H    0.201079
 Sum of Mulliken charges =  -0.00000

 Dipole moment (field-independent basis, Debye):
    X=              1.8146    Y=             -2.2748    Z=              1.9102  Tot=              3.4809
 Quadrupole moment (field-independent basis, Debye-Ang):
   XX=           -134.4251   YY=            -86.2927   ZZ=            -93.0030
   XY=              0.1279   XZ=             -9.3377   YZ=             -2.1973

 Normal termination of Gaussian 16 at Wed Jul 30 17:17:11 2025.
