 Gaussian 16, Revision C.02,
 Gaussian 16:  ES64L-G16RevC.02  7-Dec-2021

 ----------------------------------------------------------
 # td=(50-50,nstates=3) b3lyp/6-31+g(d,p) geom=connectivity
 ----------------------------------------------------------

 -------------------
 Title Card Required
 -------------------
 Symbolic Z-matrix:
 Charge =  0 Multiplicity = 1

                         Standard orientation:
 ---------------------------------------------------------------------
 Center     Atomic      Atomic             Coordinates (Angstroms)
 Number     Number       Type             X           Y           Z
 ---------------------------------------------------------------------
      1          6           0        3.638375    1.890672   -0.969671
      2          6           0        3.049357    0.772403   -0.486683
      3          6           0        3.870005   -0.402623   -0.369945
      4          7           0        4.591283   -1.311764   -0.291458
      5          6           0        1.642317    0.746649   -0.068842
      6          6           0        0.769817   -0.179195    0.390871
      7          6           0        0.880118   -1.656492    0.726928
      8          6           0        1.252379   -2.565192   -0.462695
      9          6           0        1.775564   -1.915563    1.959023
     10          6           0       -0.538882    0.542409    0.670563
     11          6           0       -1.778483    0.020181   -0.053564
     12          6           0       -1.674901   -0.355684   -1.399679
     13          6           0       -2.784649   -0.812495   -2.110312
     14          6           0       -4.020727   -0.897466   -1.468536
     15          6           0       -4.131939   -0.515423   -0.130985
     16          6           0       -3.028285   -0.047193    0.597885
     17          6           0       -3.214176    0.384020    2.036507
     18          6           0       -0.224683    1.989450    0.295549
     19          8           0       -0.913345    2.972059    0.357104
     20          8           0        1.071809    2.032290   -0.161910
     21          1           0        3.080651    2.813100   -1.068288
     22          1           0        4.681377    1.879794   -1.263263
     23          1           0       -0.138235   -1.945222    1.016144
     24          1           0        1.178652   -3.613823   -0.154458
     25          1           0        0.565941   -2.414474   -1.300871
     26          1           0        2.272186   -2.396883   -0.812079
     27          1           0        1.691969   -2.964945    2.262057
     28          1           0        1.470217   -1.294946    2.808468
     29          1           0        2.827914   -1.713467    1.747624
     30          1           0       -0.728550    0.529681    1.751230
     31          1           0       -0.711745   -0.287321   -1.898185
     32          1           0       -2.682475   -1.097048   -3.153227
     33          1           0       -4.895275   -1.253445   -2.005206
     34          1           0       -5.098430   -0.573871    0.362735
     35          1           0       -4.257425    0.264675    2.339878
     36          1           0       -2.605430   -0.211353    2.728604
     37          1           0       -2.945274    1.436360    2.179012
 ---------------------------------------------------------------------

 SCF Done:  E(RB3LYP) =  -863.262518176     A.U. after   16 cycles

 Excitation energies and oscillator strengths:

 Excited State   1:      Triplet-A      2.3203 eV  534.35 nm  f=0.0000  <S**2>=2.000
      67 -> 72         0.19366
      69 -> 72         0.15291
      70 -> 72        -0.14722
      71 -> 72         0.63738
      71 <- 72         0.11932
 This state for optimization and/or second-order correction.
 Total Energy, E(TD-HF/TD-DFT) =  -863.177249297
 Copying the excited state density for this state as the 1-particle RhoCI density.

 Excited State   2:      Triplet-A      3.6477 eV  339.89 nm  f=0.0000  <S**2>=2.000
      69 -> 73        -0.17418
      69 -> 74         0.36278
      69 -> 75        -0.14366
      70 -> 73         0.31867
      70 -> 75        -0.35437
      71 -> 73         0.18053
      71 -> 74        -0.14034

 Excited State   3:      Triplet-A      3.8784 eV  319.68 nm  f=0.0000  <S**2>=2.000
      67 -> 72         0.57016
      71 -> 72        -0.12146
      71 -> 73        -0.17076
      71 -> 74        -0.13191
      71 -> 75        -0.18925
      71 -> 80         0.14566

 Excited State   4:      Singlet-A      4.0425 eV  306.70 nm  f=0.0601  <S**2>=0.000
      69 -> 72        -0.19896
      70 -> 72         0.48640
      71 -> 72         0.46204

 Excited State   5:      Singlet-A      4.1879 eV  296.05 nm  f=0.1298  <S**2>=0.000
      67 -> 72         0.11147
      69 -> 72         0.23822
      70 -> 72         0.50541
      71 -> 72        -0.41363

 Excited State   6:      Singlet-A      4.3355 eV  285.98 nm  f=0.1062  <S**2>=0.000
      67 -> 72        -0.12470
      69 -> 72         0.62542
      71 -> 72         0.28769

 The electronic state is 1-A.
 Alpha  occ. eigenvalues --  -19.22901 -19.16674 -14.36253 -10.34109 -10.28786
 Alpha  occ. eigenvalues --  -10.27195 -10.25558 -10.23956 -10.23732 -10.23316
 Alpha  occ. eigenvalues --  -10.22258 -10.22185 -10.21917 -10.20812 -10.20678
 Alpha  occ. eigenvalues --  -10.20585 -10.20490 -10.19953 -10.19071 -10.18691
 Alpha  occ. eigenvalues --   -1.13825  -1.05662  -0.93227  -0.88499  -0.85998
 Alpha  occ. eigenvalues --   -0.84574  -0.80201  -0.78675  -0.76235  -0.73427
 Alpha  occ. eigenvalues --   -0.70079  -0.69785  -0.67095  -0.65753  -0.62920
 Alpha  occ. eigenvalues --   -0.60868  -0.59321  -0.56060  -0.53915  -0.52581
 Alpha  occ. eigenvalues --   -0.50812  -0.49525  -0.48132  -0.47927  -0.46695
 Alpha  occ. eigenvalues --   -0.46312  -0.44786  -0.44224  -0.43616  -0.43294
 Alpha  occ. eigenvalues --   -0.42369  -0.42253  -0.41961  -0.41333  -0.40464
 Alpha  occ. eigenvalues --   -0.39970  -0.39124  -0.38459  -0.37326  -0.36800
 Alpha  occ. eigenvalues --   -0.36522  -0.36250  -0.35969  -0.35441  -0.35198
 Alpha  occ. eigenvalues --   -0.33825  -0.31052  -0.30021  -0.26554  -0.25835
 Alpha  occ. eigenvalues --   -0.25106
 Alpha virt. eigenvalues --   -0.08810  -0.03585  -0.02965  -0.02242  -0.00946
 Alpha virt. eigenvalues --   -0.00356   0.00294   0.00653   0.01040   0.01542
 Alpha virt. eigenvalues --    0.02004   0.02556   0.03005   0.03669   0.04062

 Mulliken charges:
               1
     1  C   -0.249443
     2  C    0.712268
     3  C   -0.750407
     4  N   -0.442763
     5  C    0.495963
     6  C   -0.722139
     7  C    0.362868
     8  C   -0.593377
     9  C   -0.597679
    10  C    0.056893
    11  C    0.758089
    12  C   -0.072314
    13  C   -0.403904
    14  C   -0.089448
    15  C   -0.195529
    16  C    0.435946
    17  C   -0.704761
    18  C    0.122146
    19  O   -0.413933
    20  O   -0.280708
    21  H    0.184622
    22  H    0.167479
    23  H    0.133656
    24  H    0.145930
    25  H    0.145803
    26  H    0.163896
    27  H    0.148499
    28  H    0.141628
    29  H    0.169288
    30  H    0.174927
    31  H    0.122452
    32  H    0.130227
    33  H    0.127941
    34  H    0.122174
    35  H    0.149576
    36  H    0.156288
    37  H    0.187845
 Sum of Mulliken charges =  -0.00000

 Dipole moment (field-independent basis, Debye):
    X=             -1.8121    Y=             -1.2497    Z=              0.4659  Tot=              2.2500
 Quadrupole moment (field-independent basis, Debye-Ang):
   XX=           -123.8507   YY=           -131.9266   ZZ=           -112.2571
   XY=             17.1499   XZ=             -2.8997   YZ=             -1.4644

 Normal termination of Gaussian 16 at Wed Jul 30 17:23:38 2025.
