 Gaussian 16, Revision C.02,
 Gaussian 16:  ES64L-G16RevC.02  7-Dec-2021

 ----------------------------------------------------------
 # td=(50-50,nstates=3) b3lyp/6-31+g(d,p) geom=connectivity
 ----------------------------------------------------------

 -------------------
 Title Card Required
 -------------------
 Symbolic Z-matrix:
 Charge =  0 Multiplicity = 1

                         Standard orientation:
 ---------------------------------------------------------------------
 Center     Atomic      Atomic             Coordinates (Angstroms)
 Number     Number       Type             X           Y           Z
 ---------------------------------------------------------------------
      1          6           0       -4.214811   -1.848897    0.447330
      2          6           0       -3.330327   -0.658699    0.153351
      3          6           0       -3.891267    0.596190   -0.131420
      4          6           0       -3.074486    1.699315   -0.380933
      5          6           0       -1.684797    1.570747   -0.351355
      6          6           0       -1.095778    0.326973   -0.073029
      7          6           0        0.381155    0.173788   -0.041702
      8          6           0        1.002640   -0.973010   -0.570315
      9          6           0        2.385569   -1.121784   -0.543491
     10          6           0        3.189651   -0.114440    0.017519
     11          6           0        4.616048   -0.260907    0.047561
     12          7           0        5.773989   -0.379983    0.071973
     13          6           0        2.584164    1.037666    0.548701
     14          6           0        1.199955    1.172785    0.517315
     15          6           0       -1.936322   -0.773426    0.175395
     16          1           0       -4.958243   -1.996049   -0.343970
     17          1           0       -3.630831   -2.769296    0.535639
     18          1           0       -4.763987   -1.711287    1.386366
     19          1           0       -4.972497    0.707800   -0.157566
     20          1           0       -3.521084    2.662792   -0.609605
     21          1           0       -1.058521    2.429277   -0.574075
     22          1           0        0.395964   -1.746429   -1.030431
     23          1           0        2.849949   -2.008030   -0.963229
     24          1           0        3.200871    1.813126    0.990954
     25          1           0        0.744064    2.055376    0.954527
     26          1           0       -1.491962   -1.735214    0.418016
 ---------------------------------------------------------------------

 SCF Done:  E(RB3LYP) =  -594.905203966     A.U. after   16 cycles

 Excitation energies and oscillator strengths:

 Excited State   1:      Triplet-A      3.0169 eV  410.97 nm  f=0.0000  <S**2>=2.000
      48 -> 52        -0.14576
      48 -> 55        -0.14829
      49 -> 53         0.17410
      50 -> 54        -0.13135
      51 -> 52         0.62752
 This state for optimization and/or second-order correction.
 Total Energy, E(TD-HF/TD-DFT) =  -594.794335638
 Copying the excited state density for this state as the 1-particle RhoCI density.

 Excited State   2:      Triplet-A      3.7204 eV  333.26 nm  f=0.0000  <S**2>=2.000
      48 -> 52         0.39260
      49 -> 53        -0.20845
      50 -> 52        -0.14010
      50 -> 54        -0.34609
      51 -> 55        -0.36221

 Excited State   3:      Triplet-A      4.0905 eV  303.10 nm  f=0.0000  <S**2>=2.000
      50 -> 52         0.61570
      50 -> 54        -0.16030
      50 -> 55        -0.22500
      51 -> 52        -0.10465
      51 -> 54        -0.11925

 Excited State   4:      Singlet-A      4.3767 eV  283.28 nm  f=0.5048  <S**2>=0.000
      50 -> 52        -0.14584
      51 -> 52         0.67956

 Excited State   5:      Singlet-A      4.5596 eV  271.92 nm  f=0.1022  <S**2>=0.000
      50 -> 52         0.64431
      51 -> 52         0.15188
      51 -> 54         0.21543

 Excited State   6:      Singlet-A      4.7308 eV  262.08 nm  f=0.0020  <S**2>=0.000
      49 -> 52        -0.45777
      51 -> 53         0.52139

 The electronic state is 1-A.
 Alpha  occ. eigenvalues --  -14.34630 -10.24835 -10.23814 -10.23263 -10.22791
 Alpha  occ. eigenvalues --  -10.22786 -10.22105 -10.22007 -10.21999 -10.21815
 Alpha  occ. eigenvalues --  -10.20942 -10.20806 -10.20739 -10.20604 -10.19917
 Alpha  occ. eigenvalues --   -0.91630  -0.89330  -0.87215  -0.81313  -0.78415
 Alpha  occ. eigenvalues --   -0.77753  -0.75402  -0.70262  -0.66790  -0.64203
 Alpha  occ. eigenvalues --   -0.61240  -0.59443  -0.57240  -0.52879  -0.49881
 Alpha  occ. eigenvalues --   -0.49609  -0.47076  -0.46299  -0.45224  -0.44944
 Alpha  occ. eigenvalues --   -0.43424  -0.42524  -0.41274  -0.40470  -0.40033
 Alpha  occ. eigenvalues --   -0.38306  -0.37467  -0.36829  -0.35740  -0.35579
 Alpha  occ. eigenvalues --   -0.35101  -0.33828  -0.29062  -0.28384  -0.26354
 Alpha  occ. eigenvalues --   -0.24691
 Alpha virt. eigenvalues --   -0.07269  -0.03900  -0.02534  -0.01794  -0.00771
 Alpha virt. eigenvalues --    0.00544   0.00758   0.02000   0.02207   0.02329
 Alpha virt. eigenvalues --    0.03125   0.03921   0.04077   0.04346   0.05000

 Mulliken charges:
               1
     1  C   -0.518128
     2  C    0.145985
     3  C   -0.150947
     4  C   -0.111273
     5  C   -0.087365
     6  C    0.312565
     7  C    0.252001
     8  C    0.047080
     9  C   -0.452724
    10  C    0.529402
    11  C   -0.205189
    12  N   -0.535371
    13  C   -0.437540
    14  C    0.117535
    15  C   -0.431694
    16  H    0.164171
    17  H    0.149722
    18  H    0.168062
    19  H    0.125400
    20  H    0.128593
    21  H    0.121514
    22  H    0.130570
    23  H    0.147404
    24  H    0.147675
    25  H    0.129677
    26  H    0.112875
 Sum of Mulliken charges =  -0.00000

 Dipole moment (field-independent basis, Debye):
    X=             -5.8514    Y=              0.2427    Z=             -0.0195  Tot=              5.8565
 Quadrupole moment (field-independent basis, Debye-Ang):
   XX=           -116.2986   YY=            -79.1743   ZZ=            -90.9961
   XY=              4.0701   XZ=             -0.4671   YZ=              1.9162

 Normal termination of Gaussian 16 at Wed Jul 30 17:31:52 2025.
