 Gaussian 16, Revision C.02,
 Gaussian 16:  ES64L-G16RevC.02  7-Dec-2021

 ----------------------------------------------------------
 # td=(50-50,nstates=3) b3lyp/6-31+g(d,p) geom=connectivity
 ----------------------------------------------------------

 -------------------
 Title Card Required
 -------------------
 Symbolic Z-matrix:
 Charge =  0 Multiplicity = 1

                         Standard orientation:
 ---------------------------------------------------------------------
 Center     Atomic      Atomic             Coordinates (Angstroms)
 Number     Number       Type             X           Y           Z
 ---------------------------------------------------------------------
      1          6           0       -2.997487   -1.928207    1.858603
      2          7           0       -2.077675   -2.738400    1.050747
      3          6           0       -2.681422   -4.015860    0.628362
      4          6           0       -3.502559   -3.723649   -0.660068
      5          6           0       -2.828208   -2.463597   -1.268537
      6          6           0       -1.678946   -2.161037   -0.257107
      7          6           0       -1.150494   -0.762600   -0.187497
      8          8           0        0.208621   -0.708086   -0.048196
      9          6           0        0.603335    0.607725   -0.003921
     10          6           0        1.969505    0.787424   -0.028292
     11          8           0        2.723538   -0.370558    0.000452
     12          6           0        4.037003   -0.024755   -0.092154
     13          6           0        5.007534   -1.001821   -0.084685
     14          6           0        6.379859   -0.628160   -0.182180
     15          7           0        7.496404   -0.306624   -0.264157
     16          6           0        4.675169   -2.384037    0.010343
     17          7           0        4.408660   -3.515349    0.083143
     18          6           0        4.136407    1.402402   -0.187799
     19          6           0        2.867773    1.900802   -0.147957
     20          1           0        2.585171    2.939326   -0.189479
     21          6           0       -0.584362    1.453235   -0.038628
     22          6           0       -0.684283    2.834068    0.138350
     23          6           0       -1.870912    3.597224   -0.087516
     24          7           0       -2.748090    4.343271   -0.269114
     25          6           0        0.380755    3.637906    0.629633
     26          7           0        1.215578    4.332624    1.055687
     27          6           0       -1.664693    0.501211   -0.215990
     28         35           0       -3.486331    0.931419   -0.339323
     29          1           0       -2.526893   -0.978795    2.125233
     30          1           0       -3.191977   -2.468223    2.789251
     31          1           0       -3.964120   -1.709451    1.376965
     32          1           0       -1.871044   -4.721424    0.408198
     33          1           0       -3.276914   -4.437745    1.441621
     34          1           0       -4.550701   -3.520911   -0.420555
     35          1           0       -3.486790   -4.575128   -1.346237
     36          1           0       -2.418750   -2.642147   -2.267164
     37          1           0       -3.532494   -1.635101   -1.346788
     38          1           0       -0.810276   -2.754137   -0.569424
     39          1           0        5.061106    1.954902   -0.275258
 ---------------------------------------------------------------------

 SCF Done:  E(RB3LYP) =  -3727.06101367     A.U. after   19 cycles

 Excitation energies and oscillator strengths:

 Excited State   1:      Triplet-A      0.5598 eV 2214.96 nm  f=0.0000  <S**2>=2.000
     104 ->107         0.10273
     105 ->107         0.69060
     106 ->107        -0.33072
     105 <-107         0.29923
     106 <-107        -0.12765
 This state for optimization and/or second-order correction.
 Total Energy, E(TD-HF/TD-DFT) =  -3727.04044290
 Copying the excited state density for this state as the 1-particle RhoCI density.

 Excited State   2:      Triplet-A      1.4282 eV  868.09 nm  f=0.0000  <S**2>=2.000
     104 ->107         0.10271
     105 ->107         0.29582
     106 ->107         0.63124

 Excited State   3:      Singlet-A      1.4485 eV  855.92 nm  f=0.0031  <S**2>=0.000
     105 ->107         0.19573
     106 ->107         0.67844

 Excited State   4:      Triplet-A      1.8269 eV  678.68 nm  f=0.0000  <S**2>=2.000
     102 ->107         0.13181
     104 ->107         0.65748
     105 ->107        -0.11031
     105 ->108        -0.15926

 Excited State   5:      Singlet-A      2.1433 eV  578.47 nm  f=0.3391  <S**2>=0.000
     104 ->107        -0.26972
     105 ->107         0.63517
     106 ->107        -0.18334
     105 <-107        -0.12344

 Excited State   6:      Singlet-A      2.7674 eV  448.01 nm  f=0.5967  <S**2>=0.000
     104 ->107         0.63711
     105 ->107         0.27643
     105 ->108         0.10575

 The electronic state is 1-A.
 Alpha  occ. eigenvalues -- -482.97928 -61.93702 -56.45214 -56.44807 -56.44762
 Alpha  occ. eigenvalues --  -19.28434 -19.27594 -14.38199 -14.37893 -14.37614
 Alpha  occ. eigenvalues --  -14.36961 -14.36008 -10.34361 -10.34054 -10.33685
 Alpha  occ. eigenvalues --  -10.32461 -10.30701 -10.30689 -10.30455 -10.29753
 Alpha  occ. eigenvalues --  -10.27710 -10.27548 -10.27306 -10.27303 -10.26970
 Alpha  occ. eigenvalues --  -10.26549 -10.26469 -10.23184 -10.22615 -10.21520
 Alpha  occ. eigenvalues --  -10.20940  -8.63863  -6.59097  -6.57697  -6.57664
 Alpha  occ. eigenvalues --   -2.70626  -2.70225  -2.70200  -2.69082  -2.69081
 Alpha  occ. eigenvalues --   -1.19279  -1.17378  -0.96372  -0.95723  -0.95260
 Alpha  occ. eigenvalues --   -0.93708  -0.93563  -0.91091  -0.89603  -0.88703
 Alpha  occ. eigenvalues --   -0.86335  -0.83409  -0.80548  -0.80062  -0.78607
 Alpha  occ. eigenvalues --   -0.73909  -0.71439  -0.69252  -0.68181  -0.66412
 Alpha  occ. eigenvalues --   -0.63764  -0.63026  -0.61158  -0.60826  -0.59990
 Alpha  occ. eigenvalues --   -0.58822  -0.56952  -0.54708  -0.54212  -0.51925
 Alpha  occ. eigenvalues --   -0.51524  -0.50459  -0.49302  -0.48102  -0.47820
 Alpha  occ. eigenvalues --   -0.46618  -0.45499  -0.45328  -0.44216  -0.43788
 Alpha  occ. eigenvalues --   -0.43499  -0.43114  -0.42538  -0.40753  -0.40199
 Alpha  occ. eigenvalues --   -0.39825  -0.39649  -0.39441  -0.38948  -0.38527
 Alpha  occ. eigenvalues --   -0.38250  -0.37813  -0.37771  -0.37485  -0.37248
 Alpha  occ. eigenvalues --   -0.37056  -0.36569  -0.36486  -0.36151  -0.35317
 Alpha  occ. eigenvalues --   -0.35135  -0.32581  -0.31799  -0.28522  -0.25270
 Alpha  occ. eigenvalues --   -0.24529
 Alpha virt. eigenvalues --   -0.17398  -0.09620  -0.04756  -0.04252  -0.03330
 Alpha virt. eigenvalues --   -0.03212  -0.02531  -0.02289  -0.01018  -0.00190
 Alpha virt. eigenvalues --    0.00085   0.00349   0.00706   0.00748   0.00892

 Mulliken charges:
               1
     1  C   -0.341879
     2  N   -0.027940
     3  C   -0.140604
     4  C   -0.260390
     5  C   -0.232836
     6  C   -0.366981
     7  C   -0.614768
     8  O   -0.180387
     9  C    0.001616
    10  C    0.135197
    11  O   -0.273995
    12  C    0.934627
    13  C    0.634112
    14  C   -0.131493
    15  N   -0.493531
    16  C   -0.361380
    17  N   -0.478156
    18  C   -0.424268
    19  C    0.008176
    20  H    0.186855
    21  C    1.426605
    22  C    0.268826
    23  C    0.045944
    24  N   -0.445901
    25  C   -0.311447
    26  N   -0.475140
    27  C    0.114031
    28  Br   0.109891
    29  H    0.144129
    30  H    0.147323
    31  H    0.145137
    32  H    0.151820
    33  H    0.139540
    34  H    0.152853
    35  H    0.149668
    36  H    0.152836
    37  H    0.156260
    38  H    0.162356
    39  H    0.193291
 Sum of Mulliken charges =  -0.00000

 Dipole moment (field-independent basis, Debye):
    X=             -4.4271    Y=             -2.5516    Z=             -1.4709  Tot=              5.3173
 Quadrupole moment (field-independent basis, Debye-Ang):
   XX=           -202.1154   YY=           -201.7229   ZZ=           -168.1832
   XY=             34.2046   XZ=             -3.8859   YZ=             -1.4672

 Normal termination of Gaussian 16 at Wed Jul 30 17:46:57 2025.
