 Gaussian 16, Revision C.02,
 Gaussian 16:  ES64L-G16RevC.02  7-Dec-2021

 ----------------------------------------------------------
 # td=(50-50,nstates=3) b3lyp/6-31+g(d,p) geom=connectivity
 ----------------------------------------------------------

 -------------------
 Title Card Required
 -------------------
 Symbolic Z-matrix:
 Charge =  0 Multiplicity = 1

                         Standard orientation:
 ---------------------------------------------------------------------
 Center     Atomic      Atomic             Coordinates (Angstroms)
 Number     Number       Type             X           Y           Z
 ---------------------------------------------------------------------
      1          6           0       -4.389857    1.788567    0.263427
      2          6           0       -3.985875    0.595133   -0.617298
      3          6           0       -4.643655   -0.707173   -0.132830
      4          6           0       -2.454382    0.465641   -0.783634
      5          6           0       -1.679702    0.171639    0.526064
      6          6           0       -0.191990    0.093148    0.301447
      7          6           0        0.528585   -1.064127    0.150996
      8          7           0       -0.203226   -2.349823    0.257620
      9          8           0       -0.803903   -2.733473   -0.741333
     10          8           0       -0.163854   -2.920796    1.342020
     11          6           0        1.950916   -1.132520   -0.093386
     12         17           0        2.705843   -2.688847   -0.288251
     13          6           0        2.704151    0.006857   -0.188175
     14          6           0        1.999305    1.221948   -0.025703
     15          6           0        0.597738    1.291692    0.211597
     16          7           0        0.185622    2.544932    0.332443
     17          8           0        1.297922    3.323389    0.176977
     18          7           0        2.457566    2.483446   -0.051739
     19          8           0        3.554864    3.001331   -0.215119
     20          1           0       -5.475797    1.931546    0.244247
     21          1           0       -4.103993    1.637851    1.311183
     22          1           0       -3.923297    2.718324   -0.081024
     23          1           0       -4.367449    0.794477   -1.629127
     24          1           0       -5.735370   -0.621925   -0.163511
     25          1           0       -4.368967   -0.943026    0.902171
     26          1           0       -4.356532   -1.559483   -0.758744
     27          1           0       -2.240352   -0.336829   -1.499447
     28          1           0       -2.067380    1.395194   -1.217973
     29          1           0       -1.866148    0.969594    1.251993
     30          1           0       -2.035645   -0.760071    0.973369
     31          1           0        3.770227   -0.013564   -0.376533
 ---------------------------------------------------------------------

 SCF Done:  E(RB3LYP) =  -1351.53658800     A.U. after   18 cycles

 Excitation energies and oscillator strengths:

 Excited State   1:      Triplet-A      1.2358 eV 1003.28 nm  f=0.0000  <S**2>=2.000
      72 -> 78        -0.10155
      74 -> 75         0.71596
      74 -> 78         0.10039
      74 <- 75         0.23120
 This state for optimization and/or second-order correction.
 Total Energy, E(TD-HF/TD-DFT) =  -1351.49117357
 Copying the excited state density for this state as the 1-particle RhoCI density.

 Excited State   2:      Triplet-A      2.8549 eV  434.29 nm  f=0.0000  <S**2>=2.000
      64 -> 76        -0.24803
      65 -> 76         0.17568
      66 -> 75         0.11930
      66 -> 76        -0.57524
      70 -> 76         0.11883
      73 -> 76        -0.12239
      74 -> 76         0.16600
      66 <- 76        -0.15254

 Excited State   3:      Triplet-A      2.9845 eV  415.42 nm  f=0.0000  <S**2>=2.000
      66 -> 76         0.23575
      73 -> 75         0.17477
      73 -> 76        -0.29463
      74 -> 76         0.52276

 Excited State   4:      Singlet-A      3.0878 eV  401.52 nm  f=0.0250  <S**2>=0.000
      73 -> 76        -0.11571
      74 -> 75        -0.44276
      74 -> 76         0.53299

 Excited State   5:      Singlet-A      3.2547 eV  380.93 nm  f=0.1023  <S**2>=0.000
      74 -> 75         0.54174
      74 -> 76         0.43282

 Excited State   6:      Singlet-A      3.8154 eV  324.96 nm  f=0.0016  <S**2>=0.000
      65 -> 76        -0.19777
      70 -> 76        -0.15247
      73 -> 75        -0.19392
      73 -> 76         0.59195
      74 -> 76         0.15281

 The electronic state is 1-A.
 Alpha  occ. eigenvalues -- -101.59701 -19.31088 -19.23124 -19.23118 -19.22027
 Alpha  occ. eigenvalues --  -14.61353 -14.57736 -14.44220 -10.31834 -10.30551
 Alpha  occ. eigenvalues --  -10.29827 -10.29015 -10.27679 -10.26667 -10.22854
 Alpha  occ. eigenvalues --  -10.20736 -10.20696 -10.18666 -10.18614  -9.51155
 Alpha  occ. eigenvalues --   -7.27612  -7.26572  -7.26535  -1.27030  -1.24974
 Alpha  occ. eigenvalues --   -1.15213  -1.09905  -0.96737  -0.92508  -0.91783
 Alpha  occ. eigenvalues --   -0.87941  -0.83471  -0.81842  -0.79179  -0.74891
 Alpha  occ. eigenvalues --   -0.69817  -0.69518  -0.67528  -0.67343  -0.63134
 Alpha  occ. eigenvalues --   -0.60438  -0.59491  -0.57004  -0.56589  -0.56057
 Alpha  occ. eigenvalues --   -0.55136  -0.54613  -0.52927  -0.50128  -0.49330
 Alpha  occ. eigenvalues --   -0.47770  -0.46392  -0.46262  -0.45740  -0.44919
 Alpha  occ. eigenvalues --   -0.44419  -0.42478  -0.41763  -0.40837  -0.39729
 Alpha  occ. eigenvalues --   -0.38915  -0.38270  -0.36931  -0.35941  -0.35815
 Alpha  occ. eigenvalues --   -0.35111  -0.34580  -0.34167  -0.33888  -0.33760
 Alpha  occ. eigenvalues --   -0.32525  -0.32032  -0.30803  -0.25515
 Alpha virt. eigenvalues --   -0.12992  -0.11352  -0.04591  -0.04208  -0.02688
 Alpha virt. eigenvalues --   -0.00974  -0.00122   0.00591   0.00871   0.01475
 Alpha virt. eigenvalues --    0.02069   0.02973   0.04040   0.04258   0.04531

 Mulliken charges:
               1
     1  C   -0.551045
     2  C    0.239431
     3  C   -0.544985
     4  C   -0.373760
     5  C   -0.398950
     6  C    0.894232
     7  C   -0.162207
     8  N   -0.400829
     9  O    0.053571
    10  O    0.043926
    11  C   -0.135355
    12  Cl   0.323108
    13  C    0.938821
    14  C   -0.596477
    15  C   -0.533247
    16  N   -0.447765
    17  O    0.387159
    18  N   -0.625321
    19  O    0.063240
    20  H    0.147238
    21  H    0.141443
    22  H    0.149504
    23  H    0.132780
    24  H    0.147405
    25  H    0.141940
    26  H    0.152172
    27  H    0.159598
    28  H    0.154611
    29  H    0.167772
    30  H    0.150487
    31  H    0.181502
 Sum of Mulliken charges =  -0.00000

 Dipole moment (field-independent basis, Debye):
    X=             -0.9703    Y=              0.0715    Z=             -0.4081  Tot=              1.0550
 Quadrupole moment (field-independent basis, Debye-Ang):
   XX=           -115.3321   YY=           -140.7329   ZZ=           -120.1527
   XY=            -10.7800   XZ=              0.0680   YZ=              1.1679

 Normal termination of Gaussian 16 at Fri Sep 19 06:34:48 2025.
