 Gaussian 16, Revision C.02,
 Gaussian 16:  ES64L-G16RevC.02  7-Dec-2021

 ----------------------------------------------------------
 # td=(50-50,nstates=3) b3lyp/6-31+g(d,p) geom=connectivity
 ----------------------------------------------------------

 -------------------
 Title Card Required
 -------------------
 Symbolic Z-matrix:
 Charge =  0 Multiplicity = 1

                         Standard orientation:
 ---------------------------------------------------------------------
 Center     Atomic      Atomic             Coordinates (Angstroms)
 Number     Number       Type             X           Y           Z
 ---------------------------------------------------------------------
      1          6           0        2.516063   -1.845966   -0.000008
      2          6           0        2.330185   -0.340330    0.000003
      3          8           0        3.298936    0.406537    0.000007
      4          6           0        0.937615    0.227706   -0.000002
      5          6           0        0.781856    1.622982    0.000000
      6          6           0       -0.492062    2.185567   -0.000003
      7          6           0       -1.629041    1.370742   -0.000003
      8          6           0       -1.466173   -0.014546   -0.000001
      9         17           0       -2.887170   -1.052066    0.000003
     10          6           0       -0.199102   -0.595446   -0.000002
     11          1           0        3.584215   -2.064715   -0.000111
     12          1           0        2.052658   -2.299620    0.883426
     13          1           0        2.052471   -2.299661   -0.883321
     14          1           0        1.672145    2.242101    0.000004
     15          1           0       -0.610607    3.264926   -0.000005
     16          1           0       -2.624597    1.800897   -0.000006
     17          1           0       -0.111937   -1.675351   -0.000001
 ---------------------------------------------------------------------

 SCF Done:  E(RB3LYP) =  -844.517301083     A.U. after   15 cycles

 Excitation energies and oscillator strengths:

 Excited State   1:      Triplet-A      3.1827 eV  389.56 nm  f=0.0000  <S**2>=2.000
      39 -> 41         0.68262
      39 -> 45        -0.17085
 This state for optimization and/or second-order correction.
 Total Energy, E(TD-HF/TD-DFT) =  -844.400339942
 Copying the excited state density for this state as the 1-particle RhoCI density.

 Excited State   2:      Triplet-A      3.2660 eV  379.62 nm  f=0.0000  <S**2>=2.000
      38 -> 41         0.40961
      38 -> 42         0.12080
      40 -> 41         0.47489
      40 -> 42        -0.25590

 Excited State   3:      Singlet-A      3.6851 eV  336.45 nm  f=0.0001  <S**2>=0.000
      39 -> 41         0.69409
      39 -> 45        -0.12521

 Excited State   4:      Triplet-A      3.8291 eV  323.79 nm  f=0.0000  <S**2>=2.000
      38 -> 41        -0.43803
      38 -> 42        -0.16447
      40 -> 41         0.49925
      40 -> 42         0.14298

 Excited State   5:      Singlet-A      4.4312 eV  279.80 nm  f=0.0341  <S**2>=0.000
      38 -> 41        -0.16905
      38 -> 42         0.18418
      40 -> 41         0.65255
      40 -> 42         0.10389

 Excited State   6:      Singlet-A      5.1376 eV  241.33 nm  f=0.1459  <S**2>=0.000
      38 -> 41         0.60751
      40 -> 41         0.21077
      40 -> 42        -0.27211

 The electronic state is 1-A.
 Alpha  occ. eigenvalues -- -101.56677 -19.15814 -10.29643 -10.27496 -10.22957
 Alpha  occ. eigenvalues --  -10.22827 -10.22710 -10.22276 -10.21763 -10.20419
 Alpha  occ. eigenvalues --   -9.48183  -7.24593  -7.23616  -7.23589  -1.05565
 Alpha  occ. eigenvalues --   -0.91070  -0.85665  -0.79570  -0.75562  -0.75025
 Alpha  occ. eigenvalues --   -0.65714  -0.62498  -0.56395  -0.53304  -0.49674
 Alpha  occ. eigenvalues --   -0.48087  -0.46894  -0.45918  -0.44977  -0.43539
 Alpha  occ. eigenvalues --   -0.41392  -0.41092  -0.38639  -0.37912  -0.37747
 Alpha  occ. eigenvalues --   -0.34547  -0.33003  -0.28531  -0.26898  -0.26580
 Alpha virt. eigenvalues --   -0.08008  -0.03834  -0.00730   0.00288   0.01100
 Alpha virt. eigenvalues --    0.01122   0.02585   0.03486   0.04123   0.04295
 Alpha virt. eigenvalues --    0.05458   0.06358   0.06448   0.07019   0.07870

 Mulliken charges:
               1
     1  C   -0.490750
     2  C    0.083031
     3  O   -0.412886
     4  C    0.508113
     5  C    0.474845
     6  C   -0.167821
     7  C   -0.315830
     8  C   -0.203834
     9  Cl   0.257440
    10  C   -0.859616
    11  H    0.186363
    12  H    0.171560
    13  H    0.171553
    14  H    0.163898
    15  H    0.140068
    16  H    0.149360
    17  H    0.144505
 Sum of Mulliken charges =  -0.00000

 Dipole moment (field-independent basis, Debye):
    X=             -1.3606    Y=             -0.3748    Z=              0.0000  Tot=              1.4113
 Quadrupole moment (field-independent basis, Debye-Ang):
   XX=            -77.4967   YY=            -57.7209   ZZ=            -67.4542
   XY=             -8.3379   XZ=              0.0000   YZ=             -0.0000

 Normal termination of Gaussian 16 at Fri Sep 19 06:34:10 2025.
