 Gaussian 16, Revision C.02,
 Gaussian 16:  ES64L-G16RevC.02  7-Dec-2021

 ----------------------------------------------------------
 # td=(50-50,nstates=3) b3lyp/6-31+g(d,p) geom=connectivity
 ----------------------------------------------------------

 -------------------
 Title Card Required
 -------------------
 Symbolic Z-matrix:
 Charge =  0 Multiplicity = 1

                         Standard orientation:
 ---------------------------------------------------------------------
 Center     Atomic      Atomic             Coordinates (Angstroms)
 Number     Number       Type             X           Y           Z
 ---------------------------------------------------------------------
      1          6           0       -4.255186    3.126792   -0.661271
      2          7           0       -4.514822    1.768657   -0.205223
      3          6           0       -5.840962    1.366121    0.039548
      4          6           0       -6.169604    0.091702    0.290449
      5          6           0       -5.160037   -1.029727    0.318878
      6          6           0       -3.752632   -0.498546    0.092675
      7          6           0       -2.676334   -1.487001    0.066404
      8          8           0       -2.943277   -2.695838    0.050079
      9          6           0       -1.224821   -1.075612    0.048571
     10          6           0       -0.348380   -1.757993   -0.809521
     11          6           0        1.010434   -1.458544   -0.826495
     12          6           0        1.549118   -0.487845    0.039162
     13          6           0        3.000299   -0.176438    0.029243
     14          6           0        3.719896   -0.124007   -1.179220
     15          6           0        5.079597    0.169418   -1.196919
     16          6           0        5.759545    0.420667    0.007453
     17          6           0        7.160748    0.726569   -0.003813
     18          7           0        8.297831    0.976376   -0.013044
     19          6           0        5.055196    0.370087    1.222942
     20          6           0        3.695898    0.074500    1.226820
     21          6           0        0.673950    0.170797    0.918776
     22          6           0       -0.692493   -0.112222    0.918400
     23          6           0       -3.530075    0.821060   -0.180096
     24          1           0       -4.763380    3.846096   -0.010957
     25          1           0       -3.182507    3.325290   -0.618590
     26          1           0       -4.599280    3.281819   -1.692551
     27          1           0       -6.570544    2.168099    0.017235
     28          1           0       -7.212685   -0.142627    0.479873
     29          1           0       -5.399437   -1.793724   -0.435504
     30          1           0       -5.206578   -1.570228    1.275777
     31          1           0       -0.746711   -2.537460   -1.451117
     32          1           0        1.668654   -2.009096   -1.492182
     33          1           0        3.202565   -0.291819   -2.118480
     34          1           0        5.618424    0.214827   -2.137553
     35          1           0        5.579247    0.552011    2.155392
     36          1           0        3.171019    0.011554    2.174697
     37          1           0        1.059803    0.926695    1.596553
     38          1           0       -1.342741    0.402958    1.618796
     39          1           0       -2.535649    1.188422   -0.406068
 ---------------------------------------------------------------------

 SCF Done:  E(RB3LYP) =  -956.518492529     A.U. after   18 cycles

 Excitation energies and oscillator strengths:

 Excited State   1:      Triplet-A      2.2516 eV  550.66 nm  f=0.0000  <S**2>=2.000
      79 -> 80         0.41399
      79 -> 81         0.54602
      79 -> 84        -0.12839
 This state for optimization and/or second-order correction.
 Total Energy, E(TD-HF/TD-DFT) =  -956.435749056
 Copying the excited state density for this state as the 1-particle RhoCI density.

 Excited State   2:      Triplet-A      2.8986 eV  427.75 nm  f=0.0000  <S**2>=2.000
      73 -> 84         0.10756
      74 -> 82         0.11731
      76 -> 83        -0.11400
      77 -> 80        -0.26534
      77 -> 81         0.15443
      78 -> 80         0.51956
      79 -> 80        -0.21993
      79 -> 81         0.12237

 Excited State   3:      Singlet-A      3.0114 eV  411.72 nm  f=0.1296  <S**2>=0.000
      79 -> 80         0.70165

 Excited State   4:      Triplet-A      3.0853 eV  401.85 nm  f=0.0000  <S**2>=2.000
      77 -> 81         0.10486
      78 -> 80         0.24560
      78 -> 81         0.13957
      79 -> 80         0.48584
      79 -> 81        -0.33539
      79 -> 84         0.18001

 Excited State   5:      Singlet-A      3.5046 eV  353.77 nm  f=0.1446  <S**2>=0.000
      77 -> 81        -0.10918
      78 -> 80        -0.29416
      78 -> 81        -0.17548
      79 -> 81         0.58558

 Excited State   6:      Singlet-A      3.6249 eV  342.04 nm  f=0.0250  <S**2>=0.000
      77 -> 80         0.28372
      77 -> 81         0.21313
      78 -> 80         0.37905
      78 -> 81         0.27806
      79 -> 81         0.36118

 The electronic state is 1-A.
 Alpha  occ. eigenvalues --  -19.13116 -14.40404 -14.34832 -10.27187 -10.25530
 Alpha  occ. eigenvalues --  -10.25211 -10.25092 -10.24004 -10.23964 -10.23565
 Alpha  occ. eigenvalues --  -10.23033 -10.23029 -10.22621 -10.22290 -10.22284
 Alpha  occ. eigenvalues --  -10.21568 -10.21513 -10.21460 -10.21279 -10.20983
 Alpha  occ. eigenvalues --  -10.20347 -10.20190 -10.20034  -1.02685  -0.99539
 Alpha  occ. eigenvalues --   -0.91840  -0.89621  -0.87471  -0.82780  -0.81464
 Alpha  occ. eigenvalues --   -0.79288  -0.78178  -0.76626  -0.76150  -0.73969
 Alpha  occ. eigenvalues --   -0.68935  -0.66389  -0.65301  -0.64838  -0.62068
 Alpha  occ. eigenvalues --   -0.61663  -0.57613  -0.57292  -0.54513  -0.53629
 Alpha  occ. eigenvalues --   -0.51347  -0.50203  -0.49902  -0.48509  -0.47410
 Alpha  occ. eigenvalues --   -0.47101  -0.46515  -0.45769  -0.45641  -0.45383
 Alpha  occ. eigenvalues --   -0.43966  -0.43580  -0.43231  -0.42880  -0.41574
 Alpha  occ. eigenvalues --   -0.41126  -0.39511  -0.38595  -0.37981  -0.37729
 Alpha  occ. eigenvalues --   -0.37023  -0.36882  -0.36765  -0.36025  -0.35464
 Alpha  occ. eigenvalues --   -0.35150  -0.34028  -0.29466  -0.28651  -0.28596
 Alpha  occ. eigenvalues --   -0.27430  -0.25637  -0.24454  -0.20534
 Alpha virt. eigenvalues --   -0.08015  -0.05695  -0.04170  -0.03118  -0.02353
 Alpha virt. eigenvalues --   -0.01587  -0.00623   0.00575   0.00736   0.00971
 Alpha virt. eigenvalues --    0.01077   0.02007   0.02136   0.02483   0.02836

 Mulliken charges:
               1
     1  C   -0.225115
     2  N   -0.015654
     3  C    0.085949
     4  C   -0.170224
     5  C   -0.187366
     6  C    0.566134
     7  C    0.103946
     8  O   -0.424428
     9  C    0.576930
    10  C   -0.468327
    11  C    0.162261
    12  C    0.393295
    13  C    0.170766
    14  C    0.166166
    15  C   -0.486667
    16  C    0.524995
    17  C   -0.118183
    18  N   -0.535173
    19  C   -0.474766
    20  C    0.130844
    21  C   -0.176276
    22  C   -0.640019
    23  C   -1.246001
    24  H    0.156008
    25  H    0.147639
    26  H    0.164361
    27  H    0.127366
    28  H    0.128538
    29  H    0.177372
    30  H    0.167162
    31  H    0.150361
    32  H    0.123913
    33  H    0.130463
    34  H    0.148444
    35  H    0.148521
    36  H    0.130684
    37  H    0.120516
    38  H    0.133492
    39  H    0.132071
 Sum of Mulliken charges =  -0.00000

 Dipole moment (field-independent basis, Debye):
    X=             -5.8708    Y=              4.6572    Z=             -0.5927  Tot=              7.5171
 Quadrupole moment (field-independent basis, Debye-Ang):
   XX=           -179.3396   YY=           -138.8817   ZZ=           -127.2306
   XY=            -29.0742   XZ=              0.9572   YZ=              2.1607

 Normal termination of Gaussian 16 at Wed Jul 30 17:59:47 2025.
