 Gaussian 16, Revision C.02,
 Gaussian 16:  ES64L-G16RevC.02  7-Dec-2021

 ----------------------------------------------------------
 # td=(50-50,nstates=3) b3lyp/6-31+g(d,p) geom=connectivity
 ----------------------------------------------------------

 -------------------
 Title Card Required
 -------------------
 Symbolic Z-matrix:
 Charge =  0 Multiplicity = 1

                         Standard orientation:
 ---------------------------------------------------------------------
 Center     Atomic      Atomic             Coordinates (Angstroms)
 Number     Number       Type             X           Y           Z
 ---------------------------------------------------------------------
      1          6           0        3.996785   -2.226971   -0.215426
      2          6           0        3.475687   -0.984750   -0.078044
      3          6           0        4.392879    0.113615    0.082603
      4          7           0        5.188263    0.952665    0.209421
      5          6           0        2.034971   -0.742919   -0.085244
      6          6           0        1.245211    0.363300    0.009586
      7          6           0        1.650178    1.813358    0.148066
      8          6           0        1.225772    2.637930   -1.086394
      9          6           0        1.112951    2.435134    1.454561
     10          6           0       -0.139176   -0.118805   -0.034228
     11          7           0       -1.173746    0.645996   -0.046510
     12          6           0       -2.519084    0.274296   -0.000332
     13          6           0       -3.410945    1.102723   -0.712898
     14          6           0       -4.779515    0.847427   -0.697468
     15          6           0       -5.288190   -0.198557    0.079740
     16          6           0       -4.414667   -0.990980    0.832781
     17          6           0       -3.040445   -0.769836    0.789797
     18          6           0       -0.043011   -1.630170   -0.180809
     19          8           0       -0.878771   -2.485009   -0.303583
     20          8           0        1.303756   -1.928933   -0.219720
     21          1           0        3.350857   -3.086952   -0.339751
     22          1           0        5.069448   -2.379155   -0.203065
     23          1           0        2.739808    1.849993    0.199475
     24          1           0        1.594269    3.664333   -0.985774
     25          1           0        1.646028    2.218604   -2.006596
     26          1           0        0.137985    2.669439   -1.184040
     27          1           0        1.493066    3.457037    1.556954
     28          1           0        1.442740    1.865707    2.330050
     29          1           0        0.020740    2.472949    1.456022
     30          1           0       -3.002977    1.931556   -1.282390
     31          1           0       -5.451464    1.477154   -1.272932
     32          1           0       -6.357266   -0.386236    0.110405
     33          1           0       -4.805718   -1.791795    1.453352
     34          1           0       -2.375413   -1.390492    1.376600
 ---------------------------------------------------------------------

 SCF Done:  E(RB3LYP) =  -878.080036910     A.U. after   17 cycles

 Excitation energies and oscillator strengths:

 Excited State   1:      Triplet-A      1.3986 eV  886.52 nm  f=0.0000  <S**2>=2.000
      69 -> 71         0.15211
      70 -> 71         0.68130
      70 <- 71         0.12588
 This state for optimization and/or second-order correction.
 Total Energy, E(TD-HF/TD-DFT) =  -878.028640995
 Copying the excited state density for this state as the 1-particle RhoCI density.

 Excited State   2:      Triplet-A      2.0596 eV  601.99 nm  f=0.0000  <S**2>=2.000
      69 -> 71         0.65319
      70 -> 71        -0.13612
      70 -> 72        -0.16380

 Excited State   3:      Singlet-A      2.3852 eV  519.81 nm  f=0.1605  <S**2>=0.000
      67 -> 71        -0.14218
      69 -> 71        -0.28999
      70 -> 71         0.62274

 Excited State   4:      Triplet-A      2.9059 eV  426.66 nm  f=0.0000  <S**2>=2.000
      66 -> 71         0.24276
      66 -> 72        -0.15525
      67 -> 71         0.34204
      69 -> 71         0.10691
      69 -> 72         0.30363
      70 -> 72         0.39998

 Excited State   5:      Singlet-A      3.1765 eV  390.32 nm  f=0.3134  <S**2>=0.000
      69 -> 71         0.61102
      70 -> 71         0.30640

 Excited State   6:      Singlet-A      3.2521 eV  381.25 nm  f=0.0087  <S**2>=0.000
      68 -> 71         0.69639

 The electronic state is 1-A.
 Alpha  occ. eigenvalues --  -19.23802 -19.18246 -14.37595 -14.36613 -10.35249
 Alpha  occ. eigenvalues --  -10.30037 -10.27832 -10.27747 -10.25912 -10.24702
 Alpha  occ. eigenvalues --  -10.24533 -10.23424 -10.21602 -10.21077 -10.21058
 Alpha  occ. eigenvalues --  -10.20974 -10.20913 -10.20895 -10.18471 -10.18471
 Alpha  occ. eigenvalues --   -1.15062  -1.07066  -0.96639  -0.93535  -0.87230
 Alpha  occ. eigenvalues --   -0.86373  -0.83777  -0.78636  -0.76448  -0.76055
 Alpha  occ. eigenvalues --   -0.72533  -0.69293  -0.67797  -0.65124  -0.63461
 Alpha  occ. eigenvalues --   -0.62320  -0.58451  -0.57532  -0.55915  -0.53025
 Alpha  occ. eigenvalues --   -0.50802  -0.50456  -0.49062  -0.48115  -0.47370
 Alpha  occ. eigenvalues --   -0.45955  -0.45703  -0.45094  -0.43814  -0.43175
 Alpha  occ. eigenvalues --   -0.42827  -0.42636  -0.41393  -0.40424  -0.39119
 Alpha  occ. eigenvalues --   -0.38728  -0.38205  -0.37824  -0.37304  -0.36900
 Alpha  occ. eigenvalues --   -0.36381  -0.36087  -0.35007  -0.33868  -0.33289
 Alpha  occ. eigenvalues --   -0.31665  -0.29530  -0.26909  -0.26429  -0.23618
 Alpha virt. eigenvalues --   -0.12626  -0.07643  -0.02452  -0.01503  -0.00932
 Alpha virt. eigenvalues --    0.00017   0.00318   0.00386   0.01181   0.01611
 Alpha virt. eigenvalues --    0.02222   0.02534   0.03031   0.03617   0.04081

 Mulliken charges:
               1
     1  C   -0.288250
     2  C    0.566759
     3  C   -0.610142
     4  N   -0.472913
     5  C    0.349954
     6  C   -0.082156
     7  C    0.065526
     8  C   -0.581521
     9  C   -0.531671
    10  C    0.668394
    11  N   -0.096833
    12  C   -0.747295
    13  C   -0.034044
    14  C   -0.229841
    15  C   -0.043700
    16  C   -0.282643
    17  C    0.693820
    18  C    0.413445
    19  O   -0.457290
    20  O   -0.362351
    21  H    0.185746
    22  H    0.171323
    23  H    0.136055
    24  H    0.147325
    25  H    0.145792
    26  H    0.170061
    27  H    0.147200
    28  H    0.143250
    29  H    0.172451
    30  H    0.130245
    31  H    0.130705
    32  H    0.129765
    33  H    0.132586
    34  H    0.120250
 Sum of Mulliken charges =  -0.00000

 Dipole moment (field-independent basis, Debye):
    X=             -1.6724    Y=             -0.4636    Z=              0.1257  Tot=              1.7400
 Quadrupole moment (field-independent basis, Debye-Ang):
   XX=           -118.3291   YY=           -119.7515   ZZ=           -117.0422
   XY=            -14.6873   XZ=             -2.1398   YZ=             -4.8220

 Normal termination of Gaussian 16 at Wed Jul 30 17:37:54 2025.
