 Gaussian 16, Revision C.02,
 Gaussian 16:  ES64L-G16RevC.02  7-Dec-2021

 ----------------------------------------------------------
 # td=(50-50,nstates=3) b3lyp/6-31+g(d,p) geom=connectivity
 ----------------------------------------------------------

 -------------------
 Title Card Required
 -------------------
 Symbolic Z-matrix:
 Charge =  0 Multiplicity = 1

                         Standard orientation:
 ---------------------------------------------------------------------
 Center     Atomic      Atomic             Coordinates (Angstroms)
 Number     Number       Type             X           Y           Z
 ---------------------------------------------------------------------
      1          6           0        3.747542    5.166393   -0.608475
      2          6           0        3.086314    3.882465   -0.439769
      3          6           0        2.536175    2.808473   -0.299101
      4          6           0        1.892292    1.582138   -0.102254
      5          8           0        0.520100    1.603499    0.046610
      6          6           0        0.109127    0.297900    0.163561
      7          6           0       -1.242689    0.067901    0.060376
      8          8           0       -2.082557    1.135521    0.289301
      9          6           0       -3.365829    0.726995    0.066264
     10          6           0       -4.409457    1.604756    0.269909
     11          6           0       -5.746874    1.159372    0.063166
     12          7           0       -6.832397    0.776948   -0.117362
     13          6           0       -4.182716    2.948613    0.682395
     14          7           0       -4.000992    4.049577    1.016334
     15          6           0       -3.357684   -0.627413   -0.383990
     16          6           0       -2.052194   -1.031649   -0.399054
     17         35           0       -1.439936   -2.614959   -1.173436
     18          6           0        1.266014   -0.563592    0.317081
     19          6           0        1.273308   -1.837763    0.886175
     20          6           0        2.417566   -2.687617    0.913832
     21          7           0        3.289442   -3.460335    0.954795
     22          6           0        0.148624   -2.337554    1.604170
     23          7           0       -0.744341   -2.742012    2.235773
     24          6           0        2.374341    0.303142    0.002480
     25         35           0        4.183198   -0.139167   -0.124624
     26          1           0        4.835106    5.042442   -0.627147
     27          1           0        3.438748    5.640730   -1.546590
     28          1           0        3.490444    5.842976    0.213771
     29          1           0       -4.223962   -1.188501   -0.702573
 ---------------------------------------------------------------------

 SCF Done:  E(RB3LYP) =  -6162.94584143     A.U. after   18 cycles

 Excitation energies and oscillator strengths:

 Excited State   1:      Triplet-A      0.4251 eV 2916.69 nm  f=0.0000  <S**2>=2.000
     109 ->111        -0.14696
     109 ->112         0.10792
     110 ->111         0.79652
     110 <-111         0.40288
 This state for optimization and/or second-order correction.
 Total Energy, E(TD-HF/TD-DFT) =  -6162.93021983
 Copying the excited state density for this state as the 1-particle RhoCI density.

 Excited State   2:      Triplet-A      1.4963 eV  828.60 nm  f=0.0000  <S**2>=2.000
     109 ->111         0.67123
     110 ->111         0.10359
     110 ->112         0.16689

 Excited State   3:      Singlet-A      1.9483 eV  636.37 nm  f=0.1959  <S**2>=0.000
     109 ->111         0.30722
     110 ->111         0.63992
     110 <-111        -0.12425

 Excited State   4:      Singlet-A      2.4652 eV  502.94 nm  f=0.5864  <S**2>=0.000
     109 ->111         0.62430
     110 ->111        -0.32887
     110 ->112        -0.10743
     110 <-111         0.10386

 Excited State   5:      Triplet-A      2.6070 eV  475.58 nm  f=0.0000  <S**2>=2.000
     104 ->111         0.10091
     107 ->111        -0.14459
     108 ->111         0.60488
     109 ->112        -0.19197
     110 ->112         0.15305
     110 ->113        -0.10289

 Excited State   6:      Singlet-A      3.1855 eV  389.21 nm  f=0.0267  <S**2>=0.000
     108 ->111         0.65063
     110 ->112        -0.23643

 The electronic state is 1-A.
 Alpha  occ. eigenvalues -- -482.99418-482.97725 -61.95207 -61.93563 -56.46686
 Alpha  occ. eigenvalues --  -56.46277 -56.46252 -56.45114 -56.44673 -56.44646
 Alpha  occ. eigenvalues --  -19.28770 -19.27860 -14.37754 -14.37557 -14.37464
 Alpha  occ. eigenvalues --  -14.37185 -10.34541 -10.34344 -10.33839 -10.33756
 Alpha  occ. eigenvalues --  -10.32654 -10.30550 -10.30539 -10.30327 -10.30071
 Alpha  occ. eigenvalues --  -10.27547 -10.27169 -10.27000 -10.26834 -10.26595
 Alpha  occ. eigenvalues --  -10.26221 -10.25140 -10.24206  -8.65357  -8.63816
 Alpha  occ. eigenvalues --   -6.60587  -6.59193  -6.59134  -6.59071  -6.57664
 Alpha  occ. eigenvalues --   -6.57617  -2.72117  -2.71721  -2.71676  -2.70602
 Alpha  occ. eigenvalues --   -2.70562  -2.70561  -2.70200  -2.70164  -2.69040
 Alpha  occ. eigenvalues --   -2.69040  -1.19403  -1.17500  -0.95325  -0.95135
 Alpha  occ. eigenvalues --   -0.93573  -0.93403  -0.91859  -0.91181  -0.89896
 Alpha  occ. eigenvalues --   -0.87200  -0.83997  -0.83041  -0.82641  -0.80255
 Alpha  occ. eigenvalues --   -0.78752  -0.74244  -0.69477  -0.68596  -0.66255
 Alpha  occ. eigenvalues --   -0.64421  -0.63152  -0.59827  -0.59192  -0.59038
 Alpha  occ. eigenvalues --   -0.55701  -0.54406  -0.53041  -0.51614  -0.50750
 Alpha  occ. eigenvalues --   -0.49969  -0.47528  -0.47485  -0.46956  -0.46824
 Alpha  occ. eigenvalues --   -0.45729  -0.44382  -0.44084  -0.43553  -0.40883
 Alpha  occ. eigenvalues --   -0.40110  -0.40064  -0.39513  -0.39226  -0.39220
 Alpha  occ. eigenvalues --   -0.37842  -0.37666  -0.37284  -0.37108  -0.36631
 Alpha  occ. eigenvalues --   -0.36362  -0.36159  -0.34352  -0.33513  -0.32927
 Alpha  occ. eigenvalues --   -0.32715  -0.32142  -0.31565  -0.27310  -0.25003
 Alpha virt. eigenvalues --   -0.17638  -0.10633  -0.06119  -0.05523  -0.04337
 Alpha virt. eigenvalues --   -0.03588  -0.03028  -0.02895  -0.02654  -0.02057
 Alpha virt. eigenvalues --   -0.01446  -0.00019   0.00274   0.00703   0.00891

 Mulliken charges:
               1
     1  C   -0.819183
     2  C    0.099579
     3  C    0.078196
     4  C   -0.222119
     5  O   -0.186545
     6  C   -0.537952
     7  C   -0.426614
     8  O   -0.243683
     9  C    0.739687
    10  C    0.610714
    11  C   -0.230609
    12  N   -0.486956
    13  C   -0.297295
    14  N   -0.482074
    15  C    0.331999
    16  C    0.122890
    17  Br   0.171986
    18  C    0.143421
    19  C    1.255774
    20  C   -0.060789
    21  N   -0.437556
    22  C   -0.451149
    23  N   -0.416709
    24  C    0.794976
    25  Br   0.164144
    26  H    0.195097
    27  H    0.195002
    28  H    0.196723
    29  H    0.199046
 Sum of Mulliken charges =  -0.00000

 Dipole moment (field-independent basis, Debye):
    X=              5.4272    Y=              3.6654    Z=             -4.1702  Tot=              7.7640
 Quadrupole moment (field-independent basis, Debye-Ang):
   XX=           -194.3774   YY=           -172.4803   ZZ=           -170.8480
   XY=             41.9507   XZ=              1.9820   YZ=              3.2932

 Normal termination of Gaussian 16 at Wed Jul 30 18:01:25 2025.
