 Gaussian 16, Revision C.02,
 Gaussian 16:  ES64L-G16RevC.02  7-Dec-2021

 ----------------------------------------------------------
 # td=(50-50,nstates=3) b3lyp/6-31+g(d,p) geom=connectivity
 ----------------------------------------------------------

 -------------------
 Title Card Required
 -------------------
 Symbolic Z-matrix:
 Charge =  0 Multiplicity = 1

                         Standard orientation:
 ---------------------------------------------------------------------
 Center     Atomic      Atomic             Coordinates (Angstroms)
 Number     Number       Type             X           Y           Z
 ---------------------------------------------------------------------
      1          6           0        2.818665    4.485184   -1.316402
      2          6           0        1.873363    3.613693   -0.521430
      3          6           0        0.495535    3.610888   -0.786295
      4          6           0       -0.377537    2.785759   -0.075957
      5          6           0        0.094538    1.933680    0.932941
      6          6           0       -0.852733    1.067248    1.756741
      7          6           0       -1.922834    0.345453    0.954524
      8          6           0       -3.237694    0.829624    0.969438
      9          6           0       -4.248601    0.246813    0.203370
     10          6           0       -3.976125   -0.854842   -0.614907
     11          6           0       -5.063075   -1.520031   -1.427661
     12          6           0       -2.663802   -1.345037   -0.628933
     13          6           0       -1.638809   -0.775276    0.141155
     14          6           0       -0.275856   -1.386791    0.067817
     15          6           0        0.269410   -2.076530    1.162229
     16          6           0        1.525081   -2.681835    1.085850
     17          6           0        2.247837   -2.597372   -0.104171
     18         17           0        3.833242   -3.355936   -0.210664
     19          6           0        1.731533   -1.925212   -1.210896
     20          6           0        0.473665   -1.326167   -1.116702
     21          6           0        1.469021    1.935723    1.199011
     22          6           0        2.342416    2.761988    0.486694
     23          1           0        2.363251    5.450636   -1.560450
     24          1           0        3.743733    4.677827   -0.764452
     25          1           0        3.096232    4.007549   -2.264778
     26          1           0        0.098558    4.264460   -1.560100
     27          1           0       -1.438144    2.804132   -0.311900
     28          1           0       -0.253093    0.352952    2.328557
     29          1           0       -1.355507    1.701729    2.498294
     30          1           0       -3.472639    1.691045    1.590403
     31          1           0       -5.255331    0.656008    0.242392
     32          1           0       -5.849813   -0.809142   -1.698691
     33          1           0       -4.664615   -1.953145   -2.350494
     34          1           0       -5.536894   -2.333338   -0.863410
     35          1           0       -2.426839   -2.208168   -1.246997
     36          1           0       -0.301774   -2.157814    2.082763
     37          1           0        1.933555   -3.218708    1.935252
     38          1           0        2.304892   -1.865674   -2.129608
     39          1           0        0.074371   -0.791711   -1.973501
     40          1           0        1.866030    1.281864    1.971881
     41          1           0        3.404938    2.738672    0.717624
 ---------------------------------------------------------------------

 SCF Done:  E(RB3LYP) =  -1271.95376730     A.U. after   16 cycles

 Excitation energies and oscillator strengths:

 Excited State   1:      Triplet-A      3.4952 eV  354.73 nm  f=0.0000  <S**2>=2.000
      76 -> 83        -0.19638
      76 -> 84         0.14109
      77 -> 85         0.10033
      77 -> 86         0.19219
      79 -> 82         0.19552
      79 -> 84        -0.13375
      79 -> 87         0.13498
      80 -> 82         0.42228
      80 -> 83         0.17402
      81 -> 82         0.17035
 This state for optimization and/or second-order correction.
 Total Energy, E(TD-HF/TD-DFT) =  -1271.82532035
 Copying the excited state density for this state as the 1-particle RhoCI density.

 Excited State   2:      Triplet-A      3.6401 eV  340.61 nm  f=0.0000  <S**2>=2.000
      78 -> 85        -0.30795
      78 -> 86         0.20247
      79 -> 84        -0.10243
      80 -> 84         0.12333
      80 -> 87         0.13789
      81 -> 82         0.13406
      81 -> 84        -0.19871
      81 -> 85        -0.26049
      81 -> 87        -0.29166

 Excited State   3:      Triplet-A      3.6735 eV  337.51 nm  f=0.0000  <S**2>=2.000
      76 -> 82        -0.12057
      76 -> 83         0.23395
      76 -> 84        -0.12799
      77 -> 82         0.29735
      79 -> 82        -0.10542
      79 -> 83        -0.17341
      79 -> 84        -0.19628
      79 -> 86         0.11536
      80 -> 82        -0.10438
      80 -> 85         0.13434
      80 -> 86         0.22138
      80 -> 87        -0.16327
      81 -> 83         0.13518
      81 -> 84         0.10588
      81 -> 85         0.10821
      81 -> 86         0.10649

 Excited State   4:      Singlet-A      4.7884 eV  258.93 nm  f=0.0229  <S**2>=0.000
      79 -> 82        -0.13984
      80 -> 82         0.15529
      80 -> 83        -0.15925
      81 -> 82         0.61131
      81 -> 83        -0.10503

 Excited State   5:      Singlet-A      4.8684 eV  254.67 nm  f=0.0077  <S**2>=0.000
      76 -> 82        -0.15027
      79 -> 82        -0.12907
      79 -> 83        -0.11750
      80 -> 82         0.35051
      80 -> 83        -0.31265
      81 -> 82        -0.30111
      81 -> 83        -0.32421

 Excited State   6:      Singlet-A      4.9659 eV  249.67 nm  f=0.0407  <S**2>=0.000
      80 -> 82         0.26860
      80 -> 83        -0.21631
      81 -> 83         0.55252
      81 -> 85        -0.11186

 The electronic state is 1-A.
 Alpha  occ. eigenvalues -- -101.55445 -10.25902 -10.21293 -10.21088 -10.20989
 Alpha  occ. eigenvalues --  -10.20822 -10.20790 -10.20668 -10.20634 -10.20575
 Alpha  occ. eigenvalues --  -10.19955 -10.19896 -10.19815 -10.19648 -10.19542
 Alpha  occ. eigenvalues --  -10.19531 -10.19141 -10.18966 -10.18962 -10.18901
 Alpha  occ. eigenvalues --  -10.18867 -10.18632  -9.46950  -7.23353  -7.22388
 Alpha  occ. eigenvalues --   -7.22360  -0.89674  -0.87392  -0.85770  -0.84154
 Alpha  occ. eigenvalues --   -0.80428  -0.77834  -0.76767  -0.76386  -0.74334
 Alpha  occ. eigenvalues --   -0.72883  -0.72114  -0.68697  -0.65099  -0.62864
 Alpha  occ. eigenvalues --   -0.62455  -0.60711  -0.59826  -0.57944  -0.56882
 Alpha  occ. eigenvalues --   -0.52016  -0.49907  -0.48817  -0.48695  -0.47462
 Alpha  occ. eigenvalues --   -0.47218  -0.46307  -0.45079  -0.44775  -0.43759
 Alpha  occ. eigenvalues --   -0.42652  -0.42554  -0.42103  -0.41672  -0.41258
 Alpha  occ. eigenvalues --   -0.40642  -0.40366  -0.39847  -0.38794  -0.38473
 Alpha  occ. eigenvalues --   -0.37714  -0.37027  -0.35659  -0.35289  -0.34551
 Alpha  occ. eigenvalues --   -0.34002  -0.33748  -0.33440  -0.32849  -0.31638
 Alpha  occ. eigenvalues --   -0.26934  -0.26367  -0.25208  -0.24959  -0.23866
 Alpha  occ. eigenvalues --   -0.23385
 Alpha virt. eigenvalues --   -0.03456  -0.02934  -0.01779  -0.01356  -0.00873
 Alpha virt. eigenvalues --   -0.00491  -0.00313   0.00764   0.00915   0.01385
 Alpha virt. eigenvalues --    0.01488   0.02318   0.02908   0.02990   0.03168

 Mulliken charges:
               1
     1  C   -0.629289
     2  C    0.369180
     3  C   -0.451689
     4  C   -0.243815
     5  C    0.638098
     6  C   -0.552594
     7  C   -0.011796
     8  C    0.078146
     9  C   -0.405541
    10  C    0.461480
    11  C   -0.578596
    12  C    0.015018
    13  C   -0.213227
    14  C   -0.215259
    15  C   -0.366166
    16  C   -0.073749
    17  C    0.087463
    18  Cl   0.201426
    19  C   -0.366229
    20  C   -0.019208
    21  C    0.220476
    22  C   -0.510791
    23  H    0.154139
    24  H    0.151149
    25  H    0.164494
    26  H    0.115569
    27  H    0.121001
    28  H    0.135137
    29  H    0.149078
    30  H    0.109733
    31  H    0.118740
    32  H    0.152623
    33  H    0.154183
    34  H    0.166860
    35  H    0.119566
    36  H    0.128080
    37  H    0.141353
    38  H    0.142268
    39  H    0.124701
    40  H    0.102212
    41  H    0.115777
 Sum of Mulliken charges =  -0.00000

 Dipole moment (field-independent basis, Debye):
    X=             -1.8821    Y=              0.8851    Z=             -0.2461  Tot=              2.0943
 Quadrupole moment (field-independent basis, Debye-Ang):
   XX=           -133.6689   YY=           -140.8828   ZZ=           -131.8277
   XY=              5.8619   XZ=              1.3706   YZ=             -3.3054

 Normal termination of Gaussian 16 at Fri Sep 19 06:50:47 2025.
