 Gaussian 16, Revision C.02,
 Gaussian 16:  ES64L-G16RevC.02  7-Dec-2021

 ----------------------------------------------------------
 # td=(50-50,nstates=3) b3lyp/6-31+g(d,p) geom=connectivity
 ----------------------------------------------------------

 -------------------
 Title Card Required
 -------------------
 Symbolic Z-matrix:
 Charge =  0 Multiplicity = 1

                         Standard orientation:
 ---------------------------------------------------------------------
 Center     Atomic      Atomic             Coordinates (Angstroms)
 Number     Number       Type             X           Y           Z
 ---------------------------------------------------------------------
      1          6           0       -5.456310   -3.115103   -0.369181
      2          6           0       -5.155671   -1.797977   -0.419437
      3          6           0       -5.869417   -0.896105   -1.284915
      4          7           0       -6.435971   -0.157275   -1.981430
      5          6           0       -4.103344   -1.228897    0.393109
      6          6           0       -3.510713   -0.036494    0.653117
      7          6           0       -3.614856    1.398030    0.238210
      8          6           0       -3.407576    2.331768    1.445611
      9          6           0       -2.680201    1.749175   -0.968002
     10          6           0       -1.198539    1.545187   -0.741379
     11          6           0       -0.586243    0.322940   -1.061561
     12          6           0        0.775650    0.118169   -0.847298
     13          6           0        1.562350    1.145624   -0.307156
     14          6           0        3.020661    0.993541   -0.052471
     15          8           0        3.732245    1.847279    0.431122
     16          8           0        3.475223   -0.240766   -0.438836
     17          6           0        4.821067   -0.573255   -0.244451
     18          6           0        5.563322   -0.910905   -1.373409
     19          6           0        6.886966   -1.330996   -1.216669
     20          6           0        7.453970   -1.407711    0.058045
     21          6           0        6.691738   -1.065426    1.179443
     22          6           0        5.366869   -0.648251    1.035984
     23          6           0        0.965293    2.375236    0.006159
     24          6           0       -0.395886    2.569363   -0.212267
     25          6           0       -2.670472   -0.798806    1.626867
     26          8           0       -1.814026   -0.679495    2.438354
     27          8           0       -3.356650   -2.046131    1.271684
     28          1           0       -4.901576   -3.770615    0.292495
     29          1           0       -6.247150   -3.534653   -0.980089
     30          1           0       -4.634553    1.548603   -0.136644
     31          1           0       -3.526025    3.376142    1.139409
     32          1           0       -4.145288    2.123908    2.226821
     33          1           0       -2.412139    2.212230    1.881981
     34          1           0       -3.001758    1.150702   -1.827202
     35          1           0       -2.871929    2.797850   -1.223990
     36          1           0       -1.181708   -0.476724   -1.494344
     37          1           0        1.231375   -0.832251   -1.099455
     38          1           0        5.102890   -0.844761   -2.353761
     39          1           0        7.471974   -1.596712   -2.092153
     40          1           0        8.482982   -1.732712    0.178076
     41          1           0        7.127477   -1.123248    2.172449
     42          1           0        4.769013   -0.378284    1.898892
     43          1           0        1.583038    3.167708    0.415175
     44          1           0       -0.841109    3.532008    0.023655
 ---------------------------------------------------------------------

 SCF Done:  E(RB3LYP) =  -1204.22652912     A.U. after   17 cycles

 Excitation energies and oscillator strengths:

 Excited State   1:      Triplet-A      1.8766 eV  660.68 nm  f=0.0000  <S**2>=2.000
      86 -> 95        -0.14646
      90 -> 95        -0.28004
      91 -> 95        -0.26544
      92 -> 95        -0.30293
      93 -> 95         0.47953
 This state for optimization and/or second-order correction.
 Total Energy, E(TD-HF/TD-DFT) =  -1204.15756455
 Copying the excited state density for this state as the 1-particle RhoCI density.

 Excited State   2:      Singlet-A      3.1860 eV  389.15 nm  f=0.0252  <S**2>=0.000
      92 -> 95         0.12745
      93 -> 95        -0.25069
      94 -> 95         0.64143

 Excited State   3:      Triplet-A      3.2012 eV  387.31 nm  f=0.0000  <S**2>=2.000
      91 -> 95        -0.15219
      94 -> 95         0.67952

 Excited State   4:      Singlet-A      3.3007 eV  375.63 nm  f=0.0857  <S**2>=0.000
      86 -> 95         0.10850
      92 -> 95        -0.28782
      93 -> 95         0.56067
      94 -> 95         0.29067

 Excited State   5:      Triplet-A      3.3381 eV  371.43 nm  f=0.0000  <S**2>=2.000
      90 -> 96         0.12430
      90 -> 98        -0.13389
      91 -> 95         0.46311
      91 -> 96         0.25175
      91 -> 98         0.11764
      93 -> 95         0.26565
      93 -> 96         0.20032
      94 -> 95         0.16368

 Excited State   6:      Singlet-A      3.4435 eV  360.06 nm  f=0.0516  <S**2>=0.000
      91 -> 95         0.68134
      92 -> 95         0.14823

 The electronic state is 1-A.
 Alpha  occ. eigenvalues --  -19.21249 -19.21221 -19.19863 -19.15189 -14.37891
 Alpha  occ. eigenvalues --  -10.35694 -10.33240 -10.31201 -10.29089 -10.27021
 Alpha  occ. eigenvalues --  -10.26346 -10.26084 -10.24238 -10.23586 -10.22289
 Alpha  occ. eigenvalues --  -10.21882 -10.21523 -10.21336 -10.21144 -10.20954
 Alpha  occ. eigenvalues --  -10.20915 -10.20428 -10.20356 -10.20284 -10.20216
 Alpha  occ. eigenvalues --  -10.20022 -10.19832  -1.13691  -1.11853  -1.08077
 Alpha  occ. eigenvalues --   -1.03406  -0.94652  -0.88285  -0.87211  -0.86459
 Alpha  occ. eigenvalues --   -0.84900  -0.80320  -0.77610  -0.76634  -0.75926
 Alpha  occ. eigenvalues --   -0.75572  -0.71482  -0.71037  -0.66947  -0.66265
 Alpha  occ. eigenvalues --   -0.63888  -0.62687  -0.62266  -0.60262  -0.57562
 Alpha  occ. eigenvalues --   -0.55470  -0.54607  -0.54105  -0.52122  -0.51346
 Alpha  occ. eigenvalues --   -0.50478  -0.49986  -0.49186  -0.48435  -0.48192
 Alpha  occ. eigenvalues --   -0.47372  -0.46712  -0.46369  -0.45695  -0.44928
 Alpha  occ. eigenvalues --   -0.44317  -0.43988  -0.43824  -0.43071  -0.42907
 Alpha  occ. eigenvalues --   -0.42581  -0.41960  -0.40890  -0.39801  -0.39189
 Alpha  occ. eigenvalues --   -0.38824  -0.38435  -0.37622  -0.37409  -0.37250
 Alpha  occ. eigenvalues --   -0.36914  -0.36303  -0.36018  -0.35561  -0.35313
 Alpha  occ. eigenvalues --   -0.32617  -0.32457  -0.31554  -0.29128  -0.27375
 Alpha  occ. eigenvalues --   -0.26902  -0.26245  -0.26149  -0.25160
 Alpha virt. eigenvalues --   -0.12288  -0.06471  -0.04981  -0.02699  -0.02064
 Alpha virt. eigenvalues --   -0.01968  -0.01517  -0.00820   0.00078   0.00360
 Alpha virt. eigenvalues --    0.01083   0.01126   0.01622   0.02498   0.02554

 Mulliken charges:
               1
     1  C   -0.103885
     2  C    1.133774
     3  C   -0.912076
     4  N   -0.435290
     5  C    0.080128
     6  C    0.142588
     7  C   -0.232870
     8  C   -0.656101
     9  C   -0.326947
    10  C    0.437131
    11  C   -0.030754
    12  C   -0.312321
    13  C    0.360871
    14  C    0.132243
    15  O   -0.421763
    16  O   -0.251604
    17  C   -0.627142
    18  C    0.349344
    19  C   -0.226125
    20  C   -0.015700
    21  C   -0.170730
    22  C    0.393449
    23  C   -0.531470
    24  C   -0.028645
    25  C    0.503501
    26  O   -0.377926
    27  O   -0.376473
    28  H    0.193226
    29  H    0.177385
    30  H    0.157231
    31  H    0.147110
    32  H    0.153725
    33  H    0.184817
    34  H    0.155145
    35  H    0.147869
    36  H    0.112664
    37  H    0.147579
    38  H    0.129678
    39  H    0.128693
    40  H    0.125253
    41  H    0.129919
    42  H    0.133663
    43  H    0.156133
    44  H    0.124703
 Sum of Mulliken charges =  -0.00000

 Dipole moment (field-independent basis, Debye):
    X=             -2.4629    Y=             -2.0953    Z=             -1.1259  Tot=              3.4240
 Quadrupole moment (field-independent basis, Debye-Ang):
   XX=           -150.2615   YY=           -147.9811   ZZ=           -162.8665
   XY=              0.3352   XZ=             -8.3161   YZ=              6.8222

 Normal termination of Gaussian 16 at Wed Jul 30 18:17:05 2025.
