 Gaussian 16, Revision C.02,
 Gaussian 16:  ES64L-G16RevC.02  7-Dec-2021

 ----------------------------------------------------------
 # td=(50-50,nstates=3) b3lyp/6-31+g(d,p) geom=connectivity
 ----------------------------------------------------------

 -------------------
 Title Card Required
 -------------------
 Symbolic Z-matrix:
 Charge =  0 Multiplicity = 1

                         Standard orientation:
 ---------------------------------------------------------------------
 Center     Atomic      Atomic             Coordinates (Angstroms)
 Number     Number       Type             X           Y           Z
 ---------------------------------------------------------------------
      1          6           0        2.377830    0.357370    1.208954
      2          6           0        1.711775   -0.092074   -0.100683
      3          6           0        2.692844   -0.821162   -1.022441
      4          8           0        1.184165    1.053766   -0.818664
      5          6           0       -0.244351    1.112477   -0.722022
      6          6           0       -0.657526    2.220117    0.176746
      7          7           0       -0.957762    3.092768    0.880738
      8          6           0       -0.665904   -0.246872   -0.191610
      9          6           0       -2.075079   -0.657074   -0.149819
     10          8           0       -2.977987    0.021079   -0.602463
     11          8           0       -2.267792   -1.863792    0.428216
     12          6           0        0.455751   -0.888867    0.154828
     13          9           0        0.559872   -2.105138    0.681949
     14          1           0        2.736528   -0.508041    1.775142
     15          1           0        3.230791    1.000882    0.976379
     16          1           0        1.677836    0.920817    1.831367
     17          1           0        3.106912   -1.702807   -0.524317
     18          1           0        2.199421   -1.132469   -1.946899
     19          1           0        3.514799   -0.146239   -1.276849
     20          1           0       -0.656987    1.316967   -1.716246
     21          1           0       -3.222951   -2.044163    0.398293
 ---------------------------------------------------------------------

 SCF Done:  E(RB3LYP) =  -689.936427172     A.U. after   15 cycles

 Excitation energies and oscillator strengths:

 Excited State   1:      Triplet-A      3.5784 eV  346.48 nm  f=0.0000  <S**2>=2.000
      46 -> 49        -0.31575
      47 -> 49        -0.26216
      48 -> 49         0.55995
 This state for optimization and/or second-order correction.
 Total Energy, E(TD-HF/TD-DFT) =  -689.804923618
 Copying the excited state density for this state as the 1-particle RhoCI density.

 Excited State   2:      Triplet-A      4.4296 eV  279.90 nm  f=0.0000  <S**2>=2.000
      46 -> 49        -0.36040
      47 -> 49         0.58521

 Excited State   3:      Singlet-A      4.8564 eV  255.30 nm  f=0.0008  <S**2>=0.000
      46 -> 49        -0.32405
      47 -> 49         0.60368
      48 -> 49         0.13869

 Excited State   4:      Triplet-A      5.0880 eV  243.68 nm  f=0.0000  <S**2>=2.000
      43 -> 49         0.21498
      44 -> 49         0.25938
      46 -> 49         0.42857
      47 -> 49         0.21767
      48 -> 49         0.36102

 Excited State   5:      Singlet-A      5.1074 eV  242.75 nm  f=0.0631  <S**2>=0.000
      46 -> 49         0.35053
      48 -> 49         0.60862

 Excited State   6:      Singlet-A      5.9937 eV  206.86 nm  f=0.2994  <S**2>=0.000
      46 -> 49         0.49962
      47 -> 49         0.34129
      48 -> 49        -0.30896

 The electronic state is 1-A.
 Alpha  occ. eigenvalues --  -24.77874 -19.23084 -19.20063 -19.17546 -14.35716
 Alpha  occ. eigenvalues --  -10.36081 -10.33340 -10.31824 -10.29783 -10.25164
 Alpha  occ. eigenvalues --  -10.24450 -10.21181 -10.20967  -1.28844  -1.13895
 Alpha  occ. eigenvalues --   -1.09090  -1.04930  -0.92125  -0.85975  -0.84117
 Alpha  occ. eigenvalues --   -0.74445  -0.72646  -0.71201  -0.63693  -0.61974
 Alpha  occ. eigenvalues --   -0.58546  -0.57066  -0.53690  -0.51780  -0.51183
 Alpha  occ. eigenvalues --   -0.49724  -0.47887  -0.47613  -0.46798  -0.45506
 Alpha  occ. eigenvalues --   -0.43433  -0.42444  -0.41953  -0.39814  -0.39239
 Alpha  occ. eigenvalues --   -0.37962  -0.37236  -0.35556  -0.34818  -0.34476
 Alpha  occ. eigenvalues --   -0.31715  -0.31267  -0.29638
 Alpha virt. eigenvalues --   -0.08166  -0.01791  -0.01521  -0.00142   0.00683
 Alpha virt. eigenvalues --    0.01612   0.02037   0.02622   0.03603   0.04059
 Alpha virt. eigenvalues --    0.04582   0.05145   0.06024   0.06321   0.06842

 Mulliken charges:
               1
     1  C   -0.403480
     2  C    0.056978
     3  C   -0.399305
     4  O   -0.245017
     5  C   -0.025537
     6  C    0.127372
     7  N   -0.449056
     8  C   -0.218192
     9  C    0.647294
    10  O   -0.451744
    11  O   -0.456577
    12  C    0.503031
    13  F   -0.285147
    14  H    0.163508
    15  H    0.169763
    16  H    0.175071
    17  H    0.166398
    18  H    0.166471
    19  H    0.171028
    20  H    0.194619
    21  H    0.392522
 Sum of Mulliken charges =  -0.00000

 Dipole moment (field-independent basis, Debye):
    X=              2.6815    Y=             -4.1706    Z=             -0.8630  Tot=              5.0328
 Quadrupole moment (field-independent basis, Debye-Ang):
   XX=            -70.9344   YY=            -87.3964   ZZ=            -74.8936
   XY=              7.4709   XZ=              0.1631   YZ=             -3.1838

 Normal termination of Gaussian 16 at Wed Jul 30 18:04:05 2025.
