 Gaussian 16, Revision C.02,
 Gaussian 16:  ES64L-G16RevC.02  7-Dec-2021

 ----------------------------------------------------------
 # td=(50-50,nstates=3) b3lyp/6-31+g(d,p) geom=connectivity
 ----------------------------------------------------------

 -------------------
 Title Card Required
 -------------------
 Symbolic Z-matrix:
 Charge =  0 Multiplicity = 1

                         Standard orientation:
 ---------------------------------------------------------------------
 Center     Atomic      Atomic             Coordinates (Angstroms)
 Number     Number       Type             X           Y           Z
 ---------------------------------------------------------------------
      1          6           0        1.713776   -0.606664    2.567743
      2          6           0        2.531608   -0.862025    1.512750
      3          6           0        3.577870   -1.881540    1.555144
      4          6           0        4.373074   -2.152260    0.494654
      5          7           0        4.237685   -1.489737   -0.714739
      6          6           0        5.235743   -1.649369   -1.762506
      7          6           0        3.286633   -0.485848   -0.797033
      8          6           0        2.449745   -0.152852    0.220864
      9          6           0        1.448164    0.941280    0.010072
     10          6           0        1.783919    2.274933    0.331994
     11          6           0        3.138021    2.620083    0.911395
     12          6           0        0.847548    3.289765    0.102778
     13          6           0       -0.415947    3.024843   -0.436015
     14          6           0       -1.420702    4.133612   -0.649704
     15          6           0       -0.735350    1.698371   -0.741170
     16          6           0        0.170045    0.656012   -0.513304
     17          6           0       -0.201088   -0.781526   -0.866179
     18          6           0       -1.663401   -1.087240   -0.787896
     19          7           0       -2.372918   -1.383104   -1.851728
     20          8           0       -3.660206   -1.627066   -1.336020
     21          6           0       -3.572719   -1.442687   -0.007965
     22          6           0       -4.790960   -1.639148    0.819916
     23         17           0       -5.904326   -0.203475    0.731266
     24          7           0       -2.381569   -1.113555    0.393731
     25          1           0        1.814695   -1.163583    3.493796
     26          1           0        0.936247    0.146198    2.518969
     27          1           0        3.718017   -2.451493    2.468060
     28          1           0        5.148101   -2.910238    0.527912
     29          1           0        5.582130   -2.685919   -1.783827
     30          1           0        4.788517   -1.420066   -2.732892
     31          1           0        6.103169   -0.991715   -1.610667
     32          1           0        3.240643    0.027201   -1.752396
     33          1           0        3.939354    2.477391    0.176940
     34          1           0        3.165118    3.663926    1.236644
     35          1           0        3.375306    1.986514    1.772137
     36          1           0        1.114532    4.315016    0.351052
     37          1           0       -0.925298    5.090947   -0.839475
     38          1           0       -2.080138    3.917959   -1.496179
     39          1           0       -2.057204    4.263293    0.234773
     40          1           0       -1.712371    1.475821   -1.162155
     41          1           0        0.133573   -1.023588   -1.881448
     42          1           0        0.316784   -1.465554   -0.187088
     43          1           0       -5.364500   -2.500014    0.476792
     44          1           0       -4.499731   -1.758176    1.861615
 ---------------------------------------------------------------------

 SCF Done:  E(RB3LYP) =  -1435.74355392     A.U. after   17 cycles

 Excitation energies and oscillator strengths:

 Excited State   1:      Triplet-A      2.3967 eV  517.31 nm  f=0.0000  <S**2>=2.000
      90 -> 92         0.46555
      90 -> 93         0.44315
      90 -> 94         0.15336
      90 -> 95         0.14692
      90 ->102         0.11364
 This state for optimization and/or second-order correction.
 Total Energy, E(TD-HF/TD-DFT) =  -1435.65547688
 Copying the excited state density for this state as the 1-particle RhoCI density.

 Excited State   2:      Triplet-A      2.6331 eV  470.86 nm  f=0.0000  <S**2>=2.000
      90 -> 91         0.54476
      90 -> 92        -0.29508
      90 -> 93         0.30521

 Excited State   3:      Singlet-A      2.6524 eV  467.44 nm  f=0.0014  <S**2>=0.000
      90 -> 91         0.70636

 Excited State   4:      Triplet-A      2.6772 eV  463.11 nm  f=0.0000  <S**2>=2.000
      90 -> 91         0.44804
      90 -> 92         0.39423
      90 -> 93        -0.34202
      90 -> 95        -0.10476

 Excited State   5:      Singlet-A      3.3953 eV  365.16 nm  f=0.0162  <S**2>=0.000
      90 -> 92         0.62860
      90 -> 93        -0.30703

 Excited State   6:      Singlet-A      3.7580 eV  329.92 nm  f=0.0026  <S**2>=0.000
      90 -> 93        -0.25059
      90 -> 94         0.60671
      90 -> 95         0.19073
      90 -> 96         0.12261

 The electronic state is 1-A.
 Alpha  occ. eigenvalues -- -101.55768 -19.26381 -14.40436 -14.39520 -14.36038
 Alpha  occ. eigenvalues --  -10.31417 -10.28212 -10.27136 -10.24498 -10.23608
 Alpha  occ. eigenvalues --  -10.23544 -10.20898 -10.20515 -10.19954 -10.19940
 Alpha  occ. eigenvalues --  -10.19880 -10.19850 -10.19619 -10.19178 -10.18418
 Alpha  occ. eigenvalues --  -10.18370 -10.18349 -10.17923 -10.15414  -9.47290
 Alpha  occ. eigenvalues --   -7.23744  -7.22694  -7.22668  -1.17957  -0.98738
 Alpha  occ. eigenvalues --   -0.95657  -0.90454  -0.86960  -0.86008  -0.82839
 Alpha  occ. eigenvalues --   -0.79477  -0.78870  -0.76725  -0.74600  -0.73574
 Alpha  occ. eigenvalues --   -0.72166  -0.69583  -0.68412  -0.67292  -0.63974
 Alpha  occ. eigenvalues --   -0.63200  -0.61194  -0.59135  -0.57595  -0.56895
 Alpha  occ. eigenvalues --   -0.52947  -0.52273  -0.51110  -0.50735  -0.49162
 Alpha  occ. eigenvalues --   -0.48682  -0.47694  -0.47481  -0.46504  -0.46174
 Alpha  occ. eigenvalues --   -0.44414  -0.44043  -0.43394  -0.42874  -0.42298
 Alpha  occ. eigenvalues --   -0.41900  -0.41526  -0.41032  -0.40964  -0.40570
 Alpha  occ. eigenvalues --   -0.39616  -0.39020  -0.38327  -0.37994  -0.36984
 Alpha  occ. eigenvalues --   -0.35599  -0.35310  -0.34524  -0.33757  -0.33185
 Alpha  occ. eigenvalues --   -0.32615  -0.32087  -0.31656  -0.30992  -0.30320
 Alpha  occ. eigenvalues --   -0.29699  -0.27335  -0.24073  -0.23561  -0.17480
 Alpha virt. eigenvalues --   -0.06148  -0.02016  -0.01340  -0.01140  -0.00878
 Alpha virt. eigenvalues --   -0.00720  -0.00290   0.00871   0.01087   0.01338
 Alpha virt. eigenvalues --    0.01914   0.02528   0.03029   0.03278   0.03533

 Mulliken charges:
               1
     1  C   -0.432210
     2  C    0.794816
     3  C   -0.399929
     4  C    0.309485
     5  N    0.154838
     6  C   -0.172619
     7  C   -0.087108
     8  C   -1.171609
     9  C   -0.346390
    10  C    0.532752
    11  C   -0.598574
    12  C   -0.509706
    13  C    0.131630
    14  C   -0.453456
    15  C   -0.315515
    16  C    0.524150
    17  C   -0.292371
    18  C   -0.111342
    19  N   -0.363345
    20  O    0.092432
    21  C    0.037968
    22  C   -0.371224
    23  Cl   0.062860
    24  N   -0.081111
    25  H    0.116494
    26  H    0.137108
    27  H    0.126759
    28  H    0.127554
    29  H    0.150334
    30  H    0.150796
    31  H    0.161566
    32  H    0.122188
    33  H    0.156062
    34  H    0.139017
    35  H    0.175594
    36  H    0.111851
    37  H    0.150124
    38  H    0.154667
    39  H    0.168595
    40  H    0.115107
    41  H    0.173957
    42  H    0.183715
    43  H    0.218375
    44  H    0.225714
 Sum of Mulliken charges =  -0.00000

 Dipole moment (field-independent basis, Debye):
    X=              3.8939    Y=             -1.6076    Z=             -0.9894  Tot=              4.3273
 Quadrupole moment (field-independent basis, Debye-Ang):
   XX=           -132.1438   YY=           -138.1240   ZZ=           -154.7661
   XY=             -3.2423   XZ=            -15.2983   YZ=             -2.9810

 Normal termination of Gaussian 16 at Fri Sep 19 06:48:18 2025.
