 Gaussian 16, Revision C.02,
 Gaussian 16:  ES64L-G16RevC.02  7-Dec-2021

 ----------------------------------------------------------
 # td=(50-50,nstates=3) b3lyp/6-31+g(d,p) geom=connectivity
 ----------------------------------------------------------

 -------------------
 Title Card Required
 -------------------
 Symbolic Z-matrix:
 Charge =  0 Multiplicity = 1

                         Standard orientation:
 ---------------------------------------------------------------------
 Center     Atomic      Atomic             Coordinates (Angstroms)
 Number     Number       Type             X           Y           Z
 ---------------------------------------------------------------------
      1          6           0        4.377953   -2.016174   -0.059315
      2          6           0        3.748507   -0.818232   -0.013269
      3          6           0        4.570135    0.362512    0.055073
      4          7           0        5.288281    1.276133    0.109214
      5          6           0        2.292214   -0.698893   -0.031230
      6          6           0        1.406331    0.338184    0.004002
      7          6           0        1.706938    1.819012    0.080181
      8          6           0        1.215732    2.578156   -1.171553
      9          6           0        1.175348    2.454745    1.383142
     10          6           0        0.075373   -0.275645   -0.046461
     11          6           0       -1.162729    0.270007   -0.039489
     12          6           0       -2.452597   -0.488967   -0.096656
     13          8           0       -3.504450    0.461231   -0.045594
     14          6           0       -4.822159   -0.075179   -0.247495
     15          6           0       -5.308588   -0.866654    0.969844
     16          6           0       -5.722143    1.114541   -0.562064
     17          6           0        0.296146   -1.741840   -0.114726
     18          8           0       -0.488404   -2.659330   -0.173912
     19          8           0        1.661169   -1.945519   -0.100973
     20          1           0        3.810435   -2.936674   -0.111644
     21          1           0        5.459857   -2.071465   -0.044566
     22          1           0        2.791820    1.931528    0.102692
     23          1           0        1.536958    3.623571   -1.117734
     24          1           0        1.634061    2.143575   -2.084914
     25          1           0        0.125648    2.570203   -1.264215
     26          1           0        1.496770    3.499904    1.440594
     27          1           0        1.565119    1.933376    2.263094
     28          1           0        0.082900    2.439770    1.440148
     29          1           0       -1.282575    1.347743    0.010855
     30          1           0       -2.507455   -1.088897   -1.020972
     31          1           0       -2.504738   -1.210227    0.732783
     32          1           0       -4.787469   -0.744548   -1.123550
     33          1           0       -6.321687   -1.244023    0.793841
     34          1           0       -4.670170   -1.729540    1.182652
     35          1           0       -5.328901   -0.223449    1.856368
     36          1           0       -6.743830    0.778632   -0.766507
     37          1           0       -5.351207    1.657039   -1.436405
     38          1           0       -5.748785    1.806042    0.286917
 ---------------------------------------------------------------------

 SCF Done:  E(RB3LYP) =  -863.464232005     A.U. after   16 cycles

 Excitation energies and oscillator strengths:

 Excited State   1:      Triplet-A      1.7143 eV  723.25 nm  f=0.0000  <S**2>=2.000
      67 -> 72        -0.12956
      70 -> 71         0.69910
      70 <- 71         0.15970
 This state for optimization and/or second-order correction.
 Total Energy, E(TD-HF/TD-DFT) =  -863.401233641
 Copying the excited state density for this state as the 1-particle RhoCI density.

 Excited State   2:      Triplet-A      2.9531 eV  419.85 nm  f=0.0000  <S**2>=2.000
      66 -> 71        -0.13057
      67 -> 71        -0.33298
      67 -> 72         0.10662
      70 -> 72         0.58012

 Excited State   3:      Singlet-A      3.5504 eV  349.21 nm  f=0.3959  <S**2>=0.000
      70 -> 71         0.68764

 Excited State   4:      Triplet-A      3.8338 eV  323.40 nm  f=0.0000  <S**2>=2.000
      68 -> 71        -0.35098
      68 -> 72        -0.16924
      69 -> 71         0.55385
      69 -> 72         0.12398

 Excited State   5:      Singlet-A      3.9748 eV  311.92 nm  f=0.0054  <S**2>=0.000
      69 -> 71         0.68163
      69 -> 72         0.12232

 Excited State   6:      Singlet-A      4.1671 eV  297.53 nm  f=0.0154  <S**2>=0.000
      67 -> 71         0.11179
      68 -> 71         0.54218
      68 -> 72         0.16556
      70 -> 72         0.39387

 The electronic state is 1-A.
 Alpha  occ. eigenvalues --  -19.22846 -19.16854 -19.16766 -14.36155 -10.33961
 Alpha  occ. eigenvalues --  -10.28780 -10.27092 -10.25739 -10.25487 -10.25226
 Alpha  occ. eigenvalues --  -10.24122 -10.23581 -10.23463 -10.23257 -10.21940
 Alpha  occ. eigenvalues --  -10.19310 -10.19299 -10.18774 -10.18592  -1.13926
 Alpha  occ. eigenvalues --   -1.05632  -1.04879  -0.93090  -0.86975  -0.85214
 Alpha  occ. eigenvalues --   -0.81799  -0.79358  -0.76542  -0.72588  -0.70104
 Alpha  occ. eigenvalues --   -0.70090  -0.67046  -0.66447  -0.63621  -0.59943
 Alpha  occ. eigenvalues --   -0.58373  -0.56365  -0.54016  -0.52172  -0.49952
 Alpha  occ. eigenvalues --   -0.49638  -0.48165  -0.47871  -0.46799  -0.46476
 Alpha  occ. eigenvalues --   -0.45274  -0.44785  -0.44207  -0.42880  -0.42495
 Alpha  occ. eigenvalues --   -0.41372  -0.40875  -0.40271  -0.40122  -0.39970
 Alpha  occ. eigenvalues --   -0.39087  -0.38300  -0.37310  -0.37053  -0.36640
 Alpha  occ. eigenvalues --   -0.36598  -0.36530  -0.36078  -0.33651  -0.33058
 Alpha  occ. eigenvalues --   -0.32526  -0.30815  -0.29609  -0.27428  -0.23907
 Alpha virt. eigenvalues --   -0.10318  -0.06444  -0.00740   0.00253   0.00510
 Alpha virt. eigenvalues --    0.00789   0.00953   0.01870   0.01905   0.02456
 Alpha virt. eigenvalues --    0.02683   0.03154   0.03974   0.04431   0.04584

 Mulliken charges:
               1
     1  C   -0.309923
     2  C    0.628203
     3  C   -0.690965
     4  N   -0.476162
     5  C   -0.098689
     6  C   -0.138307
     7  C    0.146522
     8  C   -0.541340
     9  C   -0.545524
    10  C    0.882511
    11  C    0.140176
    12  C   -0.413735
    13  O   -0.267810
    14  C    0.228086
    15  C   -0.426103
    16  C   -0.524132
    17  C    0.403283
    18  O   -0.518392
    19  O   -0.353619
    20  H    0.182797
    21  H    0.168063
    22  H    0.138279
    23  H    0.151299
    24  H    0.153503
    25  H    0.140414
    26  H    0.151307
    27  H    0.153642
    28  H    0.140871
    29  H    0.150396
    30  H    0.159201
    31  H    0.162803
    32  H    0.111669
    33  H    0.150291
    34  H    0.146238
    35  H    0.156671
    36  H    0.144756
    37  H    0.157627
    38  H    0.156094
 Sum of Mulliken charges =  -0.00000

 Dipole moment (field-independent basis, Debye):
    X=             -2.6100    Y=              0.2283    Z=             -0.1419  Tot=              2.6238
 Quadrupole moment (field-independent basis, Debye-Ang):
   XX=           -117.4698   YY=           -122.4792   ZZ=           -115.1232
   XY=            -11.6422   XZ=              0.0912   YZ=             -0.6541

 Normal termination of Gaussian 16 at Wed Jul 30 18:13:11 2025.
