 Gaussian 16, Revision C.02,
 Gaussian 16:  ES64L-G16RevC.02  7-Dec-2021

 ----------------------------------------------------------
 # td=(50-50,nstates=3) b3lyp/6-31+g(d,p) geom=connectivity
 ----------------------------------------------------------

 -------------------
 Title Card Required
 -------------------
 Symbolic Z-matrix:
 Charge =  0 Multiplicity = 1

                         Standard orientation:
 ---------------------------------------------------------------------
 Center     Atomic      Atomic             Coordinates (Angstroms)
 Number     Number       Type             X           Y           Z
 ---------------------------------------------------------------------
      1         17           0        0.055937   -1.132437    4.857513
      2          6           0        0.951951   -1.091581    3.341982
      3          6           0        2.297501   -1.458112    3.331483
      4          6           0        2.987023   -1.418179    2.120805
      5          6           0        2.362379   -1.021461    0.926246
      6          6           0        3.167886   -1.024634   -0.338937
      7          6           0        3.311695   -2.199349   -1.056505
      8          6           0        4.077019   -2.249721   -2.247197
      9          6           0        4.701198   -1.116839   -2.717213
     10          6           0        4.593848    0.112703   -2.011661
     11          6           0        5.237450    1.293972   -2.473780
     12          6           0        5.133879    2.478327   -1.777562
     13          6           0        4.380093    2.531495   -0.579512
     14          6           0        3.741765    1.405039   -0.104723
     15          6           0        3.822001    0.165980   -0.801759
     16          6           0        1.000619   -0.654758    0.957216
     17          6           0        0.240034   -0.230630   -0.311503
     18          6           0       -0.384676    1.136756   -0.175077
     19          6           0       -1.708685    1.357463   -0.226546
     20          6           0       -2.374003    2.670735   -0.076168
     21          6           0       -1.760873    3.713267    0.641376
     22          6           0       -2.377813    4.958201    0.756210
     23          6           0       -3.626560    5.183949    0.168692
     24          6           0       -4.252940    4.149831   -0.530730
     25          6           0       -3.635375    2.903813   -0.650254
     26          8           0       -2.619987    0.342301   -0.456033
     27          6           0       -2.143228   -0.931932   -0.706453
     28          6           0       -3.236418   -1.876543   -1.025704
     29          6           0       -3.090002   -3.255311   -0.791455
     30          6           0       -4.110452   -4.146194   -1.121689
     31          6           0       -5.303659   -3.676872   -1.679661
     32          6           0       -5.466803   -2.307056   -1.899425
     33          6           0       -4.445135   -1.413841   -1.573251
     34          6           0       -0.833799   -1.228789   -0.674687
     35          6           0        0.306393   -0.696420    2.175342
     36          1           0        2.792387   -1.766090    4.245872
     37          1           0        4.036394   -1.698102    2.097495
     38          1           0        2.822861   -3.101105   -0.698248
     39          1           0        4.164665   -3.188310   -2.786535
     40          1           0        5.287074   -1.147406   -3.632176
     41          1           0        5.817831    1.244904   -3.391628
     42          1           0        5.631498    3.371929   -2.142766
     43          1           0        4.308033    3.465963   -0.030482
     44          1           0        3.174076    1.452673    0.818779
     45          1           0        0.979941   -0.200969   -1.121165
     46          1           0        0.278000    1.984490   -0.044501
     47          1           0       -0.807265    3.543337    1.130750
     48          1           0       -1.889333    5.748632    1.318772
     49          1           0       -4.109129    6.152224    0.263993
     50          1           0       -5.225841    4.311392   -0.986088
     51          1           0       -4.127019    2.106154   -1.194621
     52          1           0       -2.183110   -3.629739   -0.327541
     53          1           0       -3.979546   -5.206988   -0.928161
     54          1           0       -6.100403   -4.370899   -1.930751
     55          1           0       -6.391742   -1.930372   -2.326735
     56          1           0       -4.577805   -0.352443   -1.747496
     57          1           0       -0.524002   -2.235737   -0.930074
     58          1           0       -0.742478   -0.420380    2.206461
 ---------------------------------------------------------------------

 SCF Done:  E(RB3LYP) =  -1806.85897701     A.U. after   17 cycles

 Excitation energies and oscillator strengths:

 Excited State   1:      Triplet-A      2.6825 eV  462.19 nm  f=0.0000  <S**2>=2.000
     114 ->135         0.12229
     119 ->127        -0.10960
     121 ->124         0.17965
     122 ->124         0.60185
     123 ->124         0.23860
 This state for optimization and/or second-order correction.
 Total Energy, E(TD-HF/TD-DFT) =  -1806.76039515
 Copying the excited state density for this state as the 1-particle RhoCI density.

 Excited State   2:      Triplet-A      2.8146 eV  440.50 nm  f=0.0000  <S**2>=2.000
     121 ->126         0.23765
     122 ->125        -0.11665
     123 ->125         0.58863
     123 ->144        -0.10871

 Excited State   3:      Triplet-A      3.0250 eV  409.86 nm  f=0.0000  <S**2>=2.000
     115 ->126        -0.10466
     117 ->129         0.10328
     121 ->125         0.44050
     122 ->125        -0.15194
     123 ->126         0.38704
     123 ->127         0.15579

 Excited State   4:      Singlet-A      3.7897 eV  327.16 nm  f=0.0293  <S**2>=0.000
     123 ->124         0.61722
     123 ->125         0.33592

 Excited State   5:      Singlet-A      3.8278 eV  323.91 nm  f=0.0238  <S**2>=0.000
     123 ->124        -0.33863
     123 ->125         0.61308

 Excited State   6:      Singlet-A      4.2152 eV  294.13 nm  f=0.0045  <S**2>=0.000
     119 ->124         0.15767
     122 ->124        -0.15309
     123 ->126        -0.35031
     123 ->127         0.53711

 The electronic state is 1-A.
 Alpha  occ. eigenvalues -- -101.55398 -19.20555 -10.26099 -10.26087 -10.25962
 Alpha  occ. eigenvalues --  -10.21710 -10.21657 -10.21550 -10.21508 -10.21410
 Alpha  occ. eigenvalues --  -10.21328 -10.21325 -10.21310 -10.21049 -10.20908
 Alpha  occ. eigenvalues --  -10.20692 -10.20531 -10.20495 -10.20461 -10.20450
 Alpha  occ. eigenvalues --  -10.20435 -10.20412 -10.20244 -10.20216 -10.20215
 Alpha  occ. eigenvalues --  -10.20143 -10.20137 -10.20099 -10.20091 -10.20054
 Alpha  occ. eigenvalues --  -10.20044 -10.19975 -10.19958 -10.19495 -10.19454
 Alpha  occ. eigenvalues --   -9.46894  -7.23298  -7.22333  -7.22302  -1.09412
 Alpha  occ. eigenvalues --   -0.90057  -0.88652  -0.87162  -0.86451  -0.85552
 Alpha  occ. eigenvalues --   -0.83334  -0.82216  -0.81199  -0.79258  -0.77268
 Alpha  occ. eigenvalues --   -0.75642  -0.75497  -0.75292  -0.75273  -0.74966
 Alpha  occ. eigenvalues --   -0.73155  -0.71836  -0.67952  -0.66281  -0.63929
 Alpha  occ. eigenvalues --   -0.62819  -0.62441  -0.62053  -0.61317  -0.61163
 Alpha  occ. eigenvalues --   -0.59872  -0.59245  -0.58000  -0.54673  -0.53242
 Alpha  occ. eigenvalues --   -0.52499  -0.52360  -0.50706  -0.50364  -0.50008
 Alpha  occ. eigenvalues --   -0.49823  -0.49542  -0.48486  -0.46657  -0.46520
 Alpha  occ. eigenvalues --   -0.46132  -0.45562  -0.44941  -0.44643  -0.44537
 Alpha  occ. eigenvalues --   -0.44245  -0.43422  -0.43145  -0.43044  -0.42847
 Alpha  occ. eigenvalues --   -0.42563  -0.42510  -0.41270  -0.40973  -0.40042
 Alpha  occ. eigenvalues --   -0.39890  -0.38995  -0.38204  -0.37517  -0.37156
 Alpha  occ. eigenvalues --   -0.37131  -0.37001  -0.36812  -0.35755  -0.35566
 Alpha  occ. eigenvalues --   -0.35218  -0.34792  -0.33967  -0.33848  -0.33750
 Alpha  occ. eigenvalues --   -0.32960  -0.31595  -0.30796  -0.29534  -0.27039
 Alpha  occ. eigenvalues --   -0.26848  -0.26124  -0.26108  -0.25751  -0.25064
 Alpha  occ. eigenvalues --   -0.23353  -0.22926  -0.21500
 Alpha virt. eigenvalues --   -0.05719  -0.05109  -0.03683  -0.03589  -0.02158
 Alpha virt. eigenvalues --   -0.01928  -0.01916  -0.01572  -0.00595   0.00288
 Alpha virt. eigenvalues --    0.00329   0.00543   0.00828   0.01035   0.01283

 Mulliken charges:
               1
     1  Cl   0.221062
     2  C   -0.104900
     3  C   -0.377233
     4  C   -0.059853
     5  C   -0.288619
     6  C   -0.353909
     7  C    0.252134
     8  C   -0.335462
     9  C    0.278647
    10  C   -0.262032
    11  C   -0.189970
    12  C   -0.161306
    13  C   -0.167345
    14  C   -0.139406
    15  C   -0.047943
    16  C    0.010196
    17  C    0.209371
    18  C   -0.635323
    19  C    0.247575
    20  C    0.300881
    21  C   -0.370135
    22  C   -0.340155
    23  C   -0.046635
    24  C   -0.274423
    25  C    0.368046
    26  O   -0.234922
    27  C    0.515780
    28  C    0.287347
    29  C   -0.458409
    30  C   -0.401409
    31  C   -0.052331
    32  C   -0.259408
    33  C    0.470816
    34  C   -0.770743
    35  C    0.238767
    36  H    0.146623
    37  H    0.128625
    38  H    0.119860
    39  H    0.129450
    40  H    0.125421
    41  H    0.125855
    42  H    0.127875
    43  H    0.124510
    44  H    0.122606
    45  H    0.141381
    46  H    0.120782
    47  H    0.118744
    48  H    0.126377
    49  H    0.124975
    50  H    0.126604
    51  H    0.128414
    52  H    0.120908
    53  H    0.126601
    54  H    0.124970
    55  H    0.126671
    56  H    0.128277
    57  H    0.118174
    58  H    0.147544
 Sum of Mulliken charges =  -0.00000

 Dipole moment (field-independent basis, Debye):
    X=              1.3097    Y=              0.1879    Z=             -2.0485  Tot=              2.4387
 Quadrupole moment (field-independent basis, Debye-Ang):
   XX=           -195.6035   YY=           -191.1253   ZZ=           -217.7293
   XY=              0.0396   XZ=              2.0264   YZ=              4.9561

 Normal termination of Gaussian 16 at Thu Sep 18 08:07:00 2025.
