 Gaussian 16, Revision C.02,
 Gaussian 16:  ES64L-G16RevC.02  7-Dec-2021

 ----------------------------------------------------------
 # td=(50-50,nstates=3) b3lyp/6-31+g(d,p) geom=connectivity
 ----------------------------------------------------------

 -------------------
 Title Card Required
 -------------------
 Symbolic Z-matrix:
 Charge =  0 Multiplicity = 2

                         Standard orientation:
 ---------------------------------------------------------------------
 Center     Atomic      Atomic             Coordinates (Angstroms)
 Number     Number       Type             X           Y           Z
 ---------------------------------------------------------------------
      1          6           0        0.306319   -2.240294   -1.439273
      2          6           0        1.749544   -1.959619   -1.134650
      3          6           0        2.220898   -0.818275   -0.616661
      4          6           0        3.525843   -0.247737   -0.264352
      5          6           0        4.925287   -0.624199   -0.312376
      6          6           0        5.306658   -1.898310   -0.780928
      7          6           0        6.650600   -2.262935   -0.827502
      8          6           0        7.639052   -1.366841   -0.408295
      9          6           0        7.271233   -0.101100    0.058237
     10          6           0        5.929859    0.275019    0.109871
     11          7           0        2.987640    0.908795    0.148210
     12          8           0        3.432288    1.973203    0.635711
     13          6           0        1.553913    0.502654   -0.174993
     14          6           0        0.636370    0.532307    1.025559
     15          6           0        1.122722   -0.014657    2.222341
     16          6           0        0.362230   -0.049865    3.387139
     17          6           0       -0.933906    0.476155    3.376170
     18          6           0       -1.441113    1.021194    2.206258
     19          6           0       -0.680312    1.072234    1.009741
     20          6           0       -1.337494    1.677350   -0.148293
     21          6           0       -0.816980    2.635494   -1.110357
     22          8           0        0.305663    2.994782   -1.386278
     23          8           0       -1.910666    3.145533   -1.821727
     24          7           0       -3.120745    2.722584   -1.174710
     25          7           0       -2.714635    1.632814   -0.336255
     26          6           0       -3.600542    0.527157   -0.289304
     27          6           0       -3.154625   -0.760538    0.048174
     28          6           0       -4.057452   -1.820092    0.110468
     29          6           0       -5.407251   -1.602083   -0.165931
     30         17           0       -6.540390   -2.939700   -0.084351
     31          6           0       -5.862091   -0.328068   -0.507469
     32          6           0       -4.963424    0.734446   -0.561958
     33          1           0       -0.071568   -3.082493   -0.844453
     34          1           0       -0.328445   -1.372266   -1.244437
     35          1           0        0.176753   -2.516418   -2.493259
     36          1           0        2.451678   -2.755903   -1.369949
     37          1           0        4.551812   -2.602936   -1.110259
     38          1           0        6.926975   -3.247925   -1.192470
     39          1           0        8.686082   -1.652915   -0.446130
     40          1           0        8.033743    0.600437    0.384119
     41          1           0        5.642823    1.255889    0.470175
     42          1           0        1.195985    1.118438   -0.997283
     43          1           0        2.129282   -0.421154    2.235789
     44          1           0        0.777470   -0.477393    4.294427
     45          1           0       -1.540401    0.470598    4.276746
     46          1           0       -2.440842    1.442529    2.204995
     47          1           0       -3.314550    3.508326   -0.541485
     48          1           0       -2.110756   -0.946912    0.259221
     49          1           0       -3.707159   -2.813968    0.365975
     50          1           0       -6.910839   -0.163866   -0.728506
     51          1           0       -5.317556    1.718975   -0.841304
 ---------------------------------------------------------------------

 SCF Done:  E(UB3LYP) =  -1814.09426547     A.U. after   24 cycles

 Excitation energies and oscillator strengths:

 Excited State   1:  2.143-A      1.4974 eV  827.97 nm  f=0.0029  <S**2>=0.898
    115A ->117A       -0.14663
    115B ->116B        0.97198
    115B ->117B       -0.15993
 This state for optimization and/or second-order correction.
 Total Energy, E(TD-HF/TD-DFT) =  -1814.03923557
 Copying the excited state density for this state as the 1-particle RhoCI density.

 Excited State   2:  3.399-A      1.7044 eV  727.44 nm  f=0.0003  <S**2>=2.639
    115A ->117A        0.60312
    115A ->124A        0.10883
    116A ->117A        0.31687
    115B ->116B        0.22941
    115B ->117B        0.68272
    115B ->124B        0.12482
    115A <-117A        0.15859
    115B <-117B        0.17949

 Excited State   3:  2.085-A      2.3356 eV  530.84 nm  f=0.1193  <S**2>=0.836
    113B ->116B        0.12432
    114B ->116B        0.96243

 The electronic state is 2-A.
 Alpha  occ. eigenvalues -- -101.56920 -19.24553 -19.16489 -19.15348 -14.47481
 Alpha  occ. eigenvalues --  -14.46695 -14.45758 -10.33981 -10.27926 -10.27566
 Alpha  occ. eigenvalues --  -10.27560 -10.24932 -10.24639 -10.24423 -10.23434
 Alpha  occ. eigenvalues --  -10.23094 -10.23070 -10.23011 -10.22999 -10.22195
 Alpha  occ. eigenvalues --  -10.22143 -10.21883 -10.21876 -10.21791 -10.21490
 Alpha  occ. eigenvalues --  -10.20748 -10.20646 -10.20363 -10.20292 -10.20068
 Alpha  occ. eigenvalues --  -10.20060 -10.19872  -9.48423  -7.24831  -7.23864
 Alpha  occ. eigenvalues --   -7.23826  -1.17157  -1.12224  -1.07114  -1.01501
 Alpha  occ. eigenvalues --   -0.94207  -0.91420  -0.89353  -0.86808  -0.86640
 Alpha  occ. eigenvalues --   -0.85654  -0.80327  -0.79805  -0.79335  -0.78750
 Alpha  occ. eigenvalues --   -0.77161  -0.77064  -0.75613  -0.71301  -0.70400
 Alpha  occ. eigenvalues --   -0.69587  -0.66736  -0.65005  -0.64212  -0.62439
 Alpha  occ. eigenvalues --   -0.61739  -0.61496  -0.60689  -0.58835  -0.58588
 Alpha  occ. eigenvalues --   -0.57280  -0.55292  -0.54232  -0.52245  -0.51384
 Alpha  occ. eigenvalues --   -0.50648  -0.50499  -0.50077  -0.49618  -0.48684
 Alpha  occ. eigenvalues --   -0.47905  -0.47322  -0.47023  -0.46283  -0.46107
 Alpha  occ. eigenvalues --   -0.45862  -0.45241  -0.45030  -0.44201  -0.43560
 Alpha  occ. eigenvalues --   -0.43124  -0.42869  -0.42708  -0.42104  -0.41944
 Alpha  occ. eigenvalues --   -0.40953  -0.40466  -0.40000  -0.39043  -0.38571
 Alpha  occ. eigenvalues --   -0.38145  -0.37982  -0.37602  -0.37274  -0.37028
 Alpha  occ. eigenvalues --   -0.35680  -0.34621  -0.34256  -0.33120  -0.31979
 Alpha  occ. eigenvalues --   -0.31645  -0.29951  -0.29435  -0.29033  -0.28025
 Alpha  occ. eigenvalues --   -0.26604  -0.26295  -0.26040  -0.25669  -0.20917
 Alpha  occ. eigenvalues --   -0.20501
 Alpha virt. eigenvalues --   -0.06491  -0.05222  -0.04576  -0.03888  -0.03708
 Alpha virt. eigenvalues --   -0.01922  -0.01871  -0.01283  -0.00548  -0.00232
 Alpha virt. eigenvalues --    0.00230   0.00473   0.00980   0.01727   0.01805

  Beta  occ. eigenvalues -- -101.56915 -19.24450 -19.16191 -19.15349 -14.47473
  Beta  occ. eigenvalues --  -14.46714 -14.45314 -10.34003 -10.27593 -10.27472
  Beta  occ. eigenvalues --  -10.27231 -10.24942 -10.24637 -10.24533 -10.23285
  Beta  occ. eigenvalues --  -10.23124 -10.23094 -10.22954 -10.22930 -10.22135
  Beta  occ. eigenvalues --  -10.22057 -10.21883 -10.21868 -10.21724 -10.21555
  Beta  occ. eigenvalues --  -10.20746 -10.20646 -10.20363 -10.20292 -10.20068
  Beta  occ. eigenvalues --  -10.20059 -10.19872  -9.48418  -7.24832  -7.23845
  Beta  occ. eigenvalues --   -7.23823  -1.16871  -1.12217  -1.06590  -1.00771
  Beta  occ. eigenvalues --   -0.94188  -0.91322  -0.89064  -0.86720  -0.86614
  Beta  occ. eigenvalues --   -0.85157  -0.80165  -0.79659  -0.79188  -0.78667
  Beta  occ. eigenvalues --   -0.77038  -0.76924  -0.75612  -0.71084  -0.69975
  Beta  occ. eigenvalues --   -0.69540  -0.66554  -0.64798  -0.64124  -0.62301
  Beta  occ. eigenvalues --   -0.61668  -0.61367  -0.60516  -0.58733  -0.58387
  Beta  occ. eigenvalues --   -0.56944  -0.55220  -0.54134  -0.52195  -0.51249
  Beta  occ. eigenvalues --   -0.50552  -0.50382  -0.49772  -0.49583  -0.48450
  Beta  occ. eigenvalues --   -0.47739  -0.47063  -0.46570  -0.46151  -0.45827
  Beta  occ. eigenvalues --   -0.45739  -0.45108  -0.44982  -0.43618  -0.43427
  Beta  occ. eigenvalues --   -0.42934  -0.42843  -0.42701  -0.42056  -0.41820
  Beta  occ. eigenvalues --   -0.40863  -0.40010  -0.39556  -0.38973  -0.38396
  Beta  occ. eigenvalues --   -0.38055  -0.37830  -0.37364  -0.37204  -0.36557
  Beta  occ. eigenvalues --   -0.35668  -0.34214  -0.33890  -0.33099  -0.31716
  Beta  occ. eigenvalues --   -0.31144  -0.29408  -0.28851  -0.28465  -0.27731
  Beta  occ. eigenvalues --   -0.26554  -0.26289  -0.25759  -0.25009  -0.20834
  Beta virt. eigenvalues --   -0.13325  -0.06465  -0.05044  -0.04089  -0.03583
  Beta virt. eigenvalues --   -0.03145  -0.01884  -0.01829  -0.01249  -0.00516
  Beta virt. eigenvalues --   -0.00183   0.00246   0.00503   0.01014   0.01804

 Mulliken charges and spin densities:
               1          2
     1  C   -0.869020   0.001191
     2  C   -0.344500  -0.000209
     3  C   -0.160071  -0.001336
     4  C    0.385685   0.000305
     5  C    0.175956  -0.001126
     6  C   -0.620149   0.001726
     7  C   -0.208207  -0.000110
     8  C   -0.178456   0.000344
     9  C   -0.084321  -0.000452
    10  C    0.008362   0.000006
    11  N   -0.434013  -0.000090
    12  O    0.100749   0.000981
    13  C    0.499275  -0.003758
    14  C    1.083704   0.070921
    15  C   -0.167075  -0.071849
    16  C   -0.512436   0.120361
    17  C   -0.382934  -0.055920
    18  C   -0.316308   0.109495
    19  C    0.559055  -0.106341
    20  C   -0.472786   0.556053
    21  C    0.443786   0.008860
    22  O   -0.436680   0.111303
    23  O   -0.013446   0.017619
    24  N   -0.582078   0.015054
    25  N    0.318560   0.148610
    26  C   -1.195210  -0.031420
    27  C    0.330656   0.072828
    28  C   -0.298345  -0.038884
    29  C    0.105235   0.062599
    30  Cl   0.254850   0.005944
    31  C    0.031514  -0.043154
    32  C    0.103744   0.042931
    33  H    0.153809  -0.000003
    34  H    0.138883  -0.000046
    35  H    0.162479   0.000044
    36  H    0.119851   0.000025
    37  H    0.108333  -0.000015
    38  H    0.126589   0.000008
    39  H    0.126228  -0.000016
    40  H    0.130647   0.000011
    41  H    0.169132  -0.000016
    42  H    0.181113   0.000254
    43  H    0.142816   0.002405
    44  H    0.135869  -0.005372
    45  H    0.133367   0.002998
    46  H    0.128545  -0.005115
    47  H    0.341648   0.016301
    48  H    0.130292  -0.003901
    49  H    0.147639   0.001430
    50  H    0.150418   0.001272
    51  H    0.147243  -0.002745
 Sum of Mulliken charges =  -0.00000   1.00000

 Dipole moment (field-independent basis, Debye):
    X=             -3.0747    Y=             -3.4265    Z=              2.3896  Tot=              5.1870
 Quadrupole moment (field-independent basis, Debye-Ang):
   XX=           -181.2797   YY=           -198.2365   ZZ=           -194.5545
   XY=            -27.8121   XZ=             -4.6416   YZ=              8.3019

 Normal termination of Gaussian 16 at Thu Sep 18 08:42:28 2025.
