 Gaussian 16, Revision C.02,
 Gaussian 16:  ES64L-G16RevC.02  7-Dec-2021

 ----------------------------------------------------------
 # td=(50-50,nstates=3) b3lyp/6-31+g(d,p) geom=connectivity
 ----------------------------------------------------------

 -------------------
 Title Card Required
 -------------------
 Symbolic Z-matrix:
 Charge =  0 Multiplicity = 1

                         Standard orientation:
 ---------------------------------------------------------------------
 Center     Atomic      Atomic             Coordinates (Angstroms)
 Number     Number       Type             X           Y           Z
 ---------------------------------------------------------------------
      1          6           0       -4.280941   -1.208215   -0.978412
      2          6           0       -3.377944   -0.234375   -0.723760
      3          6           0       -3.452233    0.978084   -1.496653
      4          7           0       -3.541791    1.936934   -2.149384
      5          6           0       -2.329711   -0.373029    0.289367
      6          6           0       -1.339715    0.426194    0.747797
      7          6           0       -0.981452    1.838153    0.350570
      8          6           0       -0.674526    2.700931    1.589623
      9          6           0        0.151602    1.928750   -0.731798
     10          6           0        1.518092    1.376712   -0.371887
     11          6           0        2.429331    2.199348    0.271042
     12          6           0        3.717862    1.751073    0.644806
     13          6           0        4.107480    0.462582    0.361301
     14          6           0        3.226147   -0.421827   -0.317139
     15          6           0        3.623231   -1.751557   -0.631262
     16          6           0        2.777065   -2.610046   -1.296482
     17          6           0        1.489073   -2.167135   -1.682055
     18          6           0        1.072536   -0.884957   -1.390846
     19          6           0        1.914814    0.032562   -0.697199
     20          6           0       -0.610588   -0.352053    1.816343
     21          6           0       -1.343544   -1.678745    1.857793
     22          8           0       -1.160832   -2.649974    2.539968
     23          8           0       -2.359443   -1.625146    0.919940
     24          1           0       -4.258216   -2.139054   -0.425725
     25          1           0       -5.040588   -1.072404   -1.739069
     26          1           0       -1.854244    2.281281   -0.134882
     27          1           0       -0.514447    3.742079    1.291159
     28          1           0       -1.512827    2.682256    2.294068
     29          1           0        0.223049    2.364034    2.116909
     30          1           0       -0.222129    1.467954   -1.649854
     31          1           0        0.262796    2.995401   -0.958644
     32          1           0        2.150354    3.226889    0.488624
     33          1           0        4.396150    2.432149    1.150398
     34          1           0        5.094804    0.106304    0.642999
     35          1           0        4.616243   -2.079161   -0.334334
     36          1           0        3.093593   -3.622646   -1.527879
     37          1           0        0.823813   -2.842112   -2.212521
     38          1           0        0.081622   -0.573988   -1.699560
     39          1           0        0.448845   -0.519772    1.592048
     40          1           0       -0.653558    0.118521    2.805788
 ---------------------------------------------------------------------

 SCF Done:  E(RB3LYP) =  -977.596633448     A.U. after   16 cycles

 Excitation energies and oscillator strengths:

 Excited State   1:      Triplet-A      2.2853 eV  542.53 nm  f=0.0000  <S**2>=2.000
      75 -> 81         0.18504
      79 -> 81         0.60023
      80 -> 81         0.30043
      79 <- 81         0.11874
 This state for optimization and/or second-order correction.
 Total Energy, E(TD-HF/TD-DFT) =  -977.512649592
 Copying the excited state density for this state as the 1-particle RhoCI density.

 Excited State   2:      Triplet-A      2.6565 eV  466.72 nm  f=0.0000  <S**2>=2.000
      78 -> 83        -0.15255
      79 -> 82        -0.12696
      80 -> 81         0.11619
      80 -> 82         0.64932

 Excited State   3:      Singlet-A      3.3178 eV  373.69 nm  f=0.0401  <S**2>=0.000
      80 -> 81         0.70340

 Excited State   4:      Triplet-A      3.3755 eV  367.30 nm  f=0.0000  <S**2>=2.000
      79 -> 81        -0.27110
      80 -> 81         0.62743
      80 -> 82        -0.13343

 Excited State   5:      Singlet-A      4.1475 eV  298.94 nm  f=0.1839  <S**2>=0.000
      78 -> 81        -0.22535
      79 -> 81         0.29021
      80 -> 82         0.58440

 Excited State   6:      Singlet-A      4.1816 eV  296.50 nm  f=0.0270  <S**2>=0.000
      78 -> 81         0.65098
      80 -> 82         0.20307
      80 -> 83         0.12246

 The electronic state is 1-A.
 Alpha  occ. eigenvalues --  -19.22752 -19.16513 -14.36453 -10.34103 -10.28596
 Alpha  occ. eigenvalues --  -10.27220 -10.25740 -10.23740 -10.23322 -10.22930
 Alpha  occ. eigenvalues --  -10.22566 -10.21673 -10.21618 -10.21498 -10.20889
 Alpha  occ. eigenvalues --  -10.20663 -10.20642 -10.20621 -10.20558 -10.20538
 Alpha  occ. eigenvalues --  -10.20521 -10.20491 -10.19798  -1.13618  -1.05553
 Alpha  occ. eigenvalues --   -0.93366  -0.88982  -0.86487  -0.84835  -0.83580
 Alpha  occ. eigenvalues --   -0.80694  -0.78146  -0.75445  -0.74633  -0.73943
 Alpha  occ. eigenvalues --   -0.70003  -0.67098  -0.65949  -0.63574  -0.62703
 Alpha  occ. eigenvalues --   -0.61528  -0.59051  -0.56538  -0.54430  -0.52681
 Alpha  occ. eigenvalues --   -0.51943  -0.51084  -0.50571  -0.50534  -0.47832
 Alpha  occ. eigenvalues --   -0.47115  -0.46173  -0.45368  -0.44900  -0.44289
 Alpha  occ. eigenvalues --   -0.43879  -0.43242  -0.42794  -0.42293  -0.41177
 Alpha  occ. eigenvalues --   -0.41125  -0.40807  -0.40022  -0.39817  -0.38860
 Alpha  occ. eigenvalues --   -0.38546  -0.37539  -0.37175  -0.36977  -0.36431
 Alpha  occ. eigenvalues --   -0.35188  -0.34750  -0.33894  -0.33223  -0.31146
 Alpha  occ. eigenvalues --   -0.29706  -0.29337  -0.25943  -0.25317  -0.22734
 Alpha virt. eigenvalues --   -0.08802  -0.05901  -0.03071  -0.02808  -0.01263
 Alpha virt. eigenvalues --   -0.00150   0.00032   0.00266   0.00613   0.00809
 Alpha virt. eigenvalues --    0.01224   0.01666   0.02184   0.02632   0.03204

 Mulliken charges:
               1
     1  C   -0.218331
     2  C    1.020262
     3  C   -0.652106
     4  N   -0.434740
     5  C    0.384182
     6  C   -0.318154
     7  C   -0.137674
     8  C   -0.671164
     9  C   -0.097931
    10  C    0.242439
    11  C    0.053200
    12  C   -0.416778
    13  C    0.152507
    14  C   -0.255511
    15  C    0.164540
    16  C   -0.216307
    17  C   -0.171404
    18  C   -0.335315
    19  C    0.006974
    20  C   -0.245317
    21  C    0.333525
    22  O   -0.434221
    23  O   -0.293446
    24  H    0.184569
    25  H    0.168454
    26  H    0.148548
    27  H    0.149914
    28  H    0.151515
    29  H    0.165131
    30  H    0.146684
    31  H    0.146463
    32  H    0.121433
    33  H    0.129249
    34  H    0.127291
    35  H    0.126967
    36  H    0.130572
    37  H    0.122149
    38  H    0.106062
    39  H    0.218051
    40  H    0.197719
 Sum of Mulliken charges =  -0.00000

 Dipole moment (field-independent basis, Debye):
    X=              1.3779    Y=              1.0470    Z=              0.3740  Tot=              1.7705
 Quadrupole moment (field-independent basis, Debye-Ang):
   XX=           -128.0493   YY=           -140.8456   ZZ=           -145.4692
   XY=              5.0040   XZ=              1.6413   YZ=             19.6782

 Normal termination of Gaussian 16 at Wed Jul 30 18:30:45 2025.
