 Gaussian 16, Revision C.02,
 Gaussian 16:  ES64L-G16RevC.02  7-Dec-2021

 ----------------------------------------------------------
 # td=(50-50,nstates=3) b3lyp/6-31+g(d,p) geom=connectivity
 ----------------------------------------------------------

 -------------------
 Title Card Required
 -------------------
 Symbolic Z-matrix:
 Charge =  0 Multiplicity = 1

                         Standard orientation:
 ---------------------------------------------------------------------
 Center     Atomic      Atomic             Coordinates (Angstroms)
 Number     Number       Type             X           Y           Z
 ---------------------------------------------------------------------
      1          6           0       -3.212219   -0.496378    0.000023
      2          6           0       -1.718202   -0.699633   -0.000131
      3          6           0       -1.185134   -2.040257   -0.000124
      4          6           0        0.153127   -2.326844    0.000051
      5          6           0        1.062207   -1.227102    0.000137
      6          7           0        2.386564   -1.243881    0.000068
      7          8           0        2.777710    0.063711    0.000031
      8          7           0        1.605414    0.930964   -0.000055
      9          8           0        1.761091    2.143460   -0.000139
     10          6           0        0.551009    0.102601    0.000020
     11          6           0       -0.849656    0.385736   -0.000066
     12          6           0       -1.351458    1.724098    0.000068
     13          7           0       -1.824860    2.787291    0.000107
     14          1           0       -3.738055   -1.453284   -0.001490
     15          1           0       -3.534199    0.070626    0.880220
     16          1           0       -3.534135    0.073452   -0.878348
     17          1           0       -1.899337   -2.857812   -0.000325
     18          1           0        0.527456   -3.344301    0.000098
 ---------------------------------------------------------------------

 SCF Done:  E(RB3LYP) =  -622.422582859     A.U. after   17 cycles

 Excitation energies and oscillator strengths:

 Excited State   1:      Triplet-A      1.1496 eV 1078.53 nm  f=0.0000  <S**2>=2.000
      44 -> 47        -0.12424
      45 -> 46         0.72104
      45 -> 47        -0.15481
      45 <- 46         0.24085
 This state for optimization and/or second-order correction.
 Total Energy, E(TD-HF/TD-DFT) =  -622.380337125
 Copying the excited state density for this state as the 1-particle RhoCI density.

 Excited State   2:      Triplet-A      2.9509 eV  420.16 nm  f=0.0000  <S**2>=2.000
      44 -> 46         0.50559
      45 -> 46        -0.10469
      45 -> 47        -0.46392

 Excited State   3:      Singlet-A      3.0326 eV  408.84 nm  f=0.0961  <S**2>=0.000
      45 -> 46         0.69780

 Excited State   4:      Triplet-A      3.5306 eV  351.17 nm  f=0.0000  <S**2>=2.000
      42 -> 46         0.63940
      44 -> 46         0.14992
      45 -> 48        -0.22887

 Excited State   5:      Singlet-A      3.9443 eV  314.33 nm  f=0.0006  <S**2>=0.000
      43 -> 46         0.69517
      43 -> 47        -0.11521

 Excited State   6:      Singlet-A      4.3648 eV  284.06 nm  f=0.0269  <S**2>=0.000
      44 -> 46         0.58301
      45 -> 47         0.37990

 The electronic state is 1-A.
 Alpha  occ. eigenvalues --  -19.30228 -19.21298 -14.57075 -14.43484 -14.36761
 Alpha  occ. eigenvalues --  -10.29526 -10.28394 -10.28305 -10.27169 -10.25868
 Alpha  occ. eigenvalues --  -10.25737 -10.25355 -10.22527  -1.24151  -1.14566
 Alpha  occ. eigenvalues --   -0.95435  -0.92933  -0.90707  -0.87866  -0.82199
 Alpha  occ. eigenvalues --   -0.77332  -0.70907  -0.67832  -0.67065  -0.59782
 Alpha  occ. eigenvalues --   -0.57205  -0.56136  -0.54130  -0.53198  -0.49823
 Alpha  occ. eigenvalues --   -0.47210  -0.46771  -0.44822  -0.43009  -0.42838
 Alpha  occ. eigenvalues --   -0.41698  -0.41571  -0.39644  -0.38580  -0.38130
 Alpha  occ. eigenvalues --   -0.35819  -0.32183  -0.31799  -0.31626  -0.24993
 Alpha virt. eigenvalues --   -0.12964  -0.05702  -0.03528  -0.01688  -0.00574
 Alpha virt. eigenvalues --    0.00233   0.00843   0.01135   0.03078   0.03437
 Alpha virt. eigenvalues --    0.03687   0.04130   0.04754   0.05826   0.06195

 Mulliken charges:
               1
     1  C   -0.402044
     2  C    0.147476
     3  C   -0.686735
     4  C    0.044711
     5  C   -0.911211
     6  N   -0.282003
     7  O    0.380989
     8  N   -0.776724
     9  O    0.024641
    10  C    0.716496
    11  C    1.618496
    12  C   -0.210049
    13  N   -0.512711
    14  H    0.157170
    15  H    0.191617
    16  H    0.191601
    17  H    0.145282
    18  H    0.162996
 Sum of Mulliken charges =  -0.00000

 Dipole moment (field-independent basis, Debye):
    X=             -3.4058    Y=             -5.9491    Z=              0.0002  Tot=              6.8550
 Quadrupole moment (field-independent basis, Debye-Ang):
   XX=            -77.9143   YY=            -83.2871   ZZ=            -73.6756
   XY=              7.5873   XZ=              0.0001   YZ=              0.0001

 Normal termination of Gaussian 16 at Wed Jul 30 18:17:17 2025.
