 Gaussian 16, Revision C.02,
 Gaussian 16:  ES64L-G16RevC.02  7-Dec-2021

 ----------------------------------------------------------
 # td=(50-50,nstates=3) b3lyp/6-31+g(d,p) geom=connectivity
 ----------------------------------------------------------

 -------------------
 Title Card Required
 -------------------
 Symbolic Z-matrix:
 Charge =  0 Multiplicity = 1

                         Standard orientation:
 ---------------------------------------------------------------------
 Center     Atomic      Atomic             Coordinates (Angstroms)
 Number     Number       Type             X           Y           Z
 ---------------------------------------------------------------------
      1          6           0       -2.511280    1.408433    2.139893
      2          6           0       -2.967505    0.558787    1.184271
      3          6           0       -4.361394    0.120205    1.143092
      4          6           0       -4.804074   -0.821119    0.281476
      5          7           0       -3.962536   -1.414696   -0.651897
      6          6           0       -4.423618   -2.555545   -1.434752
      7          6           0       -2.658833   -0.996909   -0.704700
      8          6           0       -2.146855   -0.029443    0.107636
      9          6           0       -0.732209    0.363661   -0.074505
     10          6           0       -0.364050    1.690766   -0.403903
     11          6           0       -1.344734    2.770386   -0.727357
     12          7           0        0.941276    2.055385   -0.490636
     13          8           0        1.278907    3.261924   -0.790562
     14          6           0        1.932690    1.096598   -0.270902
     15          6           0        3.290934    1.457852   -0.343918
     16          6           0        4.265807    0.501491   -0.142001
     17          6           0        3.889717   -0.832052    0.132668
     18         17           0        5.147904   -2.026464    0.383928
     19          6           0        2.565697   -1.213819    0.205700
     20          6           0        1.572298   -0.236453    0.005067
     21          7           0        0.223653   -0.602512    0.089650
     22          8           0       -0.066817   -1.835775    0.316762
     23          1           0       -3.181720    1.793477    2.900783
     24          1           0       -1.474596    1.718291    2.195707
     25          1           0       -5.065004    0.554611    1.845604
     26          1           0       -5.833196   -1.161500    0.265127
     27          1           0       -5.439040   -2.371138   -1.796978
     28          1           0       -3.769409   -2.691563   -2.297874
     29          1           0       -4.418888   -3.478185   -0.841249
     30          1           0       -2.041888   -1.489882   -1.446177
     31          1           0       -2.362279    2.386348   -0.739873
     32          1           0       -1.272497    3.584057    0.001411
     33          1           0       -1.088040    3.204867   -1.699529
     34          1           0        3.530579    2.491138   -0.561435
     35          1           0        5.316074    0.764958   -0.193269
     36          1           0        2.256512   -2.229057    0.414956
 ---------------------------------------------------------------------

 SCF Done:  E(RB3LYP) =  -1392.94392568     A.U. after   18 cycles

 Excitation energies and oscillator strengths:

 Excited State   1:      Triplet-A      1.0482 eV 1182.78 nm  f=0.0000  <S**2>=2.000
      81 -> 83         0.69988
      81 -> 87        -0.14637
      82 -> 83         0.20640
      81 <- 83         0.25221
 This state for optimization and/or second-order correction.
 Total Energy, E(TD-HF/TD-DFT) =  -1392.90540327
 Copying the excited state density for this state as the 1-particle RhoCI density.

 Excited State   2:      Triplet-A      1.7179 eV  721.73 nm  f=0.0000  <S**2>=2.000
      81 -> 83        -0.20084
      82 -> 83         0.66397

 Excited State   3:      Singlet-A      1.8682 eV  663.64 nm  f=0.0424  <S**2>=0.000
      82 -> 83         0.70403

 Excited State   4:      Triplet-A      2.4923 eV  497.47 nm  f=0.0000  <S**2>=2.000
      82 -> 83         0.10873
      82 -> 84         0.52426
      82 -> 85        -0.36582
      82 -> 86        -0.16799
      82 -> 87        -0.18618

 Excited State   5:      Singlet-A      2.8341 eV  437.47 nm  f=0.0241  <S**2>=0.000
      81 -> 83        -0.10214
      82 -> 84         0.68956

 Excited State   6:      Singlet-A      3.0410 eV  407.71 nm  f=0.0949  <S**2>=0.000
      81 -> 83         0.66685
      81 -> 87         0.14938
      82 -> 84         0.10214

 The electronic state is 1-A.
 Alpha  occ. eigenvalues -- -101.56866 -19.14258 -19.14214 -14.49561 -14.49245
 Alpha  occ. eigenvalues --  -14.41029 -10.28097 -10.27141 -10.27124 -10.26876
 Alpha  occ. eigenvalues --  -10.26851 -10.25313 -10.25241 -10.24644 -10.23212
 Alpha  occ. eigenvalues --  -10.22845 -10.22826 -10.21563 -10.21304 -10.20499
 Alpha  occ. eigenvalues --  -10.19676 -10.16638  -9.48363  -7.24780  -7.23801
 Alpha  occ. eigenvalues --   -7.23758  -1.12772  -1.11572  -1.00196  -0.93929
 Alpha  occ. eigenvalues --   -0.91114  -0.87141  -0.85327  -0.84043  -0.80929
 Alpha  occ. eigenvalues --   -0.79509  -0.78212  -0.75760  -0.73113  -0.71419
 Alpha  occ. eigenvalues --   -0.68453  -0.65596  -0.64689  -0.62888  -0.60777
 Alpha  occ. eigenvalues --   -0.60234  -0.56139  -0.54141  -0.53134  -0.52262
 Alpha  occ. eigenvalues --   -0.50469  -0.49624  -0.49065  -0.48578  -0.47807
 Alpha  occ. eigenvalues --   -0.47154  -0.46665  -0.46556  -0.45699  -0.45247
 Alpha  occ. eigenvalues --   -0.43644  -0.43103  -0.42135  -0.41174  -0.41083
 Alpha  occ. eigenvalues --   -0.40562  -0.40304  -0.39578  -0.39158  -0.38879
 Alpha  occ. eigenvalues --   -0.35556  -0.34800  -0.33042  -0.31618  -0.30102
 Alpha  occ. eigenvalues --   -0.29065  -0.28211  -0.27237  -0.27028  -0.26557
 Alpha  occ. eigenvalues --   -0.21230  -0.18613
 Alpha virt. eigenvalues --   -0.09664  -0.05766  -0.02854  -0.02286  -0.02046
 Alpha virt. eigenvalues --   -0.01033   0.00061   0.00286   0.00789   0.01362
 Alpha virt. eigenvalues --    0.02338   0.02711   0.02896   0.03135   0.03494

 Mulliken charges:
               1
     1  C   -0.412641
     2  C    0.722510
     3  C   -0.323204
     4  C    0.245569
     5  N    0.004128
     6  C   -0.218454
     7  C   -0.191687
     8  C   -0.959965
     9  C    0.580626
    10  C   -0.025437
    11  C   -0.558990
    12  N   -0.435453
    13  O    0.038347
    14  C    0.051993
    15  C   -0.748174
    16  C    0.007715
    17  C    0.344614
    18  Cl   0.262482
    19  C   -0.403724
    20  C    0.224844
    21  N   -0.422946
    22  O    0.028650
    23  H    0.121991
    24  H    0.120020
    25  H    0.133089
    26  H    0.134019
    27  H    0.154664
    28  H    0.151892
    29  H    0.171994
    30  H    0.141546
    31  H    0.163588
    32  H    0.190047
    33  H    0.178979
    34  H    0.182687
    35  H    0.155122
    36  H    0.189560
 Sum of Mulliken charges =  -0.00000

 Dipole moment (field-independent basis, Debye):
    X=             -3.9227    Y=             -1.9493    Z=             -2.3014  Tot=              4.9481
 Quadrupole moment (field-independent basis, Debye-Ang):
   XX=           -109.2721   YY=           -146.0483   ZZ=           -136.3125
   XY=             10.6992   XZ=              6.6468   YZ=              8.6091

 Normal termination of Gaussian 16 at Wed Sep 17 17:58:05 2025.
