 Gaussian 16, Revision C.02,
 Gaussian 16:  ES64L-G16RevC.02  7-Dec-2021

 ----------------------------------------------------------
 # td=(50-50,nstates=3) b3lyp/6-31+g(d,p) geom=connectivity
 ----------------------------------------------------------

 -------------------
 Title Card Required
 -------------------
 Symbolic Z-matrix:
 Charge =  0 Multiplicity = 1

                         Standard orientation:
 ---------------------------------------------------------------------
 Center     Atomic      Atomic             Coordinates (Angstroms)
 Number     Number       Type             X           Y           Z
 ---------------------------------------------------------------------
      1          6           0       -5.658378    1.409755    0.898746
      2          8           0       -4.311253    1.463391    0.451576
      3          6           0       -3.838077    0.214814   -0.009199
      4          6           0       -2.396570    0.349918   -0.451114
      5          6           0       -1.747771    1.525952   -0.245436
      6          6           0       -0.388885    1.804051   -0.670807
      7          6           0        0.177030    3.036247   -0.404214
      8          6           0        1.543450    3.543958   -0.810596
      9          6           0       -0.581093    3.983365    0.356265
     10          7           0       -1.135856    4.801173    0.975174
     11          6           0        0.272566    0.730913   -1.416633
     12          8           0        1.547522    0.972762   -1.791395
     13          6           0        2.275565   -0.011950   -2.559389
     14          6           0        3.771138    0.292104   -2.498386
     15          6           0        4.482897   -0.244145   -1.242197
     16          6           0        4.171016    0.498107    0.069787
     17          6           0        4.658712   -0.240634    1.343399
     18          6           0        3.511052   -0.818217    2.192645
     19          6           0        2.684504   -1.901012    1.483853
     20          6           0        1.402899   -2.297124    2.201902
     21         35           0        0.065872   -0.816442    2.193773
     22          6           0       -0.383461   -0.442179   -1.660306
     23          6           0       -1.694269   -0.729001   -1.141654
     24          6           0       -2.178113   -2.035677   -1.288510
     25          6           0       -3.419146   -2.542506   -0.806402
     26          7           0       -4.411749   -3.022076   -0.425664
     27          6           0       -1.398135   -3.016363   -1.976367
     28          7           0       -0.744087   -3.804050   -2.535074
     29          1           0       -5.920982    2.417403    1.225583
     30          1           0       -6.334703    1.102162    0.088195
     31          1           0       -5.771584    0.711998    1.740638
     32          1           0       -3.928235   -0.539175    0.787505
     33          1           0       -4.454759   -0.136023   -0.851418
     34          1           0       -2.289341    2.315024    0.261344
     35          1           0        1.697753    3.439233   -1.887016
     36          1           0        1.648804    4.594354   -0.535253
     37          1           0        2.334357    2.972544   -0.316281
     38          1           0        2.085378   -1.011124   -2.152480
     39          1           0        1.895548    0.020180   -3.587732
     40          1           0        4.220714   -0.178604   -3.381673
     41          1           0        3.927068    1.372260   -2.612567
     42          1           0        5.566997   -0.215770   -1.413022
     43          1           0        4.230172   -1.308179   -1.132958
     44          1           0        3.091825    0.666798    0.149810
     45          1           0        4.625645    1.495915    0.016609
     46          1           0        5.355406   -1.044219    1.065393
     47          1           0        5.233825    0.446114    1.975040
     48          1           0        3.916942   -1.233076    3.125096
     49          1           0        2.842925    0.001595    2.483750
     50          1           0        2.423038   -1.585996    0.468210
     51          1           0        3.287808   -2.815639    1.378675
     52          1           0        0.893346   -3.124209    1.708398
     53          1           0        1.558560   -2.537424    3.254674
     54          1           0        0.108100   -1.227512   -2.215390
 ---------------------------------------------------------------------

 SCF Done:  E(RB3LYP) =  -3740.40852542     A.U. after   17 cycles

 Excitation energies and oscillator strengths:

 Excited State   1:      Triplet-A      0.9880 eV 1254.84 nm  f=0.0000  <S**2>=2.000
     115 ->116         0.73245
     115 <-116         0.23904
 This state for optimization and/or second-order correction.
 Total Energy, E(TD-HF/TD-DFT) =  -3740.37221528
 Copying the excited state density for this state as the 1-particle RhoCI density.

 Excited State   2:      Triplet-A      2.2518 eV  550.59 nm  f=0.0000  <S**2>=2.000
     113 ->116        -0.17858
     114 ->116         0.65969

 Excited State   3:      Singlet-A      2.7897 eV  444.43 nm  f=0.1719  <S**2>=0.000
     113 ->116        -0.10131
     114 ->116         0.55489
     115 ->116        -0.42347

 Excited State   4:      Singlet-A      3.0310 eV  409.05 nm  f=0.5197  <S**2>=0.000
     113 ->116         0.13543
     114 ->116         0.42864
     115 ->116         0.54002
     115 <-116        -0.11455

 Excited State   5:      Triplet-A      3.1228 eV  397.03 nm  f=0.0000  <S**2>=2.000
     110 ->116        -0.28619
     111 ->116        -0.11409
     112 ->116         0.24351
     113 ->116         0.54431
     114 ->116         0.13635
     115 ->117         0.15045

 Excited State   6:      Singlet-A      3.2388 eV  382.81 nm  f=0.0730  <S**2>=0.000
     113 ->116         0.68016
     115 ->116        -0.15657

 The electronic state is 1-A.
 Alpha  occ. eigenvalues -- -482.92762 -61.88631 -56.40062 -56.39718 -56.39700
 Alpha  occ. eigenvalues --  -19.22866 -19.17536 -14.36344 -14.35803 -14.35575
 Alpha  occ. eigenvalues --  -10.30406 -10.27898 -10.27724 -10.27575 -10.27124
 Alpha  occ. eigenvalues --  -10.25891 -10.25868 -10.25663 -10.25294 -10.25256
 Alpha  occ. eigenvalues --  -10.25121 -10.24026 -10.24022 -10.22718 -10.22499
 Alpha  occ. eigenvalues --  -10.22079 -10.21828 -10.21341 -10.20854 -10.20078
 Alpha  occ. eigenvalues --  -10.20060 -10.20049  -8.58807  -6.53902  -6.52711
 Alpha  occ. eigenvalues --   -6.52689  -2.65445  -2.65117  -2.65098  -2.64148
 Alpha  occ. eigenvalues --   -2.64148  -1.11328  -1.05636  -0.93610  -0.93198
 Alpha  occ. eigenvalues --   -0.91873  -0.90502  -0.86534  -0.84360  -0.83229
 Alpha  occ. eigenvalues --   -0.81944  -0.80772  -0.79217  -0.76123  -0.75846
 Alpha  occ. eigenvalues --   -0.73162  -0.71710  -0.69599  -0.68476  -0.66561
 Alpha  occ. eigenvalues --   -0.65648  -0.63347  -0.62067  -0.60433  -0.59156
 Alpha  occ. eigenvalues --   -0.58554  -0.57652  -0.55390  -0.52356  -0.51861
 Alpha  occ. eigenvalues --   -0.51610  -0.49788  -0.49356  -0.49087  -0.48275
 Alpha  occ. eigenvalues --   -0.47522  -0.46979  -0.46593  -0.46318  -0.45117
 Alpha  occ. eigenvalues --   -0.44885  -0.44269  -0.43475  -0.43149  -0.42626
 Alpha  occ. eigenvalues --   -0.42003  -0.41602  -0.41357  -0.40627  -0.40272
 Alpha  occ. eigenvalues --   -0.38844  -0.38789  -0.38639  -0.38455  -0.37983
 Alpha  occ. eigenvalues --   -0.37683  -0.37220  -0.37148  -0.36236  -0.36085
 Alpha  occ. eigenvalues --   -0.35684  -0.35512  -0.35355  -0.34976  -0.34679
 Alpha  occ. eigenvalues --   -0.34026  -0.33505  -0.33293  -0.33070  -0.31948
 Alpha  occ. eigenvalues --   -0.28813  -0.28379  -0.28087  -0.26922  -0.23823
 Alpha virt. eigenvalues --   -0.13901  -0.04237  -0.02818  -0.02510  -0.02042
 Alpha virt. eigenvalues --   -0.01647  -0.00823  -0.00518  -0.00204   0.00950
 Alpha virt. eigenvalues --    0.01035   0.01578   0.01611   0.01756   0.02285

 Mulliken charges:
               1
     1  C   -0.135795
     2  O   -0.302044
     3  C    0.056627
     4  C   -0.343734
     5  C   -0.576246
     6  C    0.767299
     7  C    0.976583
     8  C   -0.448662
     9  C   -0.230302
    10  N   -0.485606
    11  C   -0.130463
    12  O   -0.310715
    13  C    0.203201
    14  C   -0.361795
    15  C   -0.372739
    16  C   -0.025327
    17  C   -0.381905
    18  C   -0.341227
    19  C   -0.061480
    20  C   -0.315540
    21  Br  -0.225636
    22  C   -0.663881
    23  C    0.367626
    24  C    0.855264
    25  C   -0.019838
    26  N   -0.514981
    27  C   -0.463125
    28  N   -0.454511
    29  H    0.148545
    30  H    0.132482
    31  H    0.135289
    32  H    0.163653
    33  H    0.150124
    34  H    0.183973
    35  H    0.181704
    36  H    0.165832
    37  H    0.185476
    38  H    0.128642
    39  H    0.151631
    40  H    0.148942
    41  H    0.154495
    42  H    0.144305
    43  H    0.137424
    44  H    0.150929
    45  H    0.132869
    46  H    0.138694
    47  H    0.140356
    48  H    0.137488
    49  H    0.152571
    50  H    0.137647
    51  H    0.150286
    52  H    0.177259
    53  H    0.173705
    54  H    0.134631
 Sum of Mulliken charges =  -0.00000

 Dipole moment (field-independent basis, Debye):
    X=              6.6826    Y=              1.7892    Z=             -1.0955  Tot=              7.0042
 Quadrupole moment (field-independent basis, Debye-Ang):
   XX=           -171.2419   YY=           -217.3624   ZZ=           -183.1207
   XY=             -9.5722   XZ=             -3.9333   YZ=            -20.9449

 Normal termination of Gaussian 16 at Wed Jul 30 18:39:14 2025.
