 Gaussian 16, Revision C.02,
 Gaussian 16:  ES64L-G16RevC.02  7-Dec-2021

 ----------------------------------------------------------
 # td=(50-50,nstates=3) b3lyp/6-31+g(d,p) geom=connectivity
 ----------------------------------------------------------

 -------------------
 Title Card Required
 -------------------
 Symbolic Z-matrix:
 Charge =  0 Multiplicity = 1

                         Standard orientation:
 ---------------------------------------------------------------------
 Center     Atomic      Atomic             Coordinates (Angstroms)
 Number     Number       Type             X           Y           Z
 ---------------------------------------------------------------------
      1         17           0       -3.579007   -1.396082    0.303492
      2          6           0       -2.354880   -0.155955    0.047632
      3          6           0       -2.755194    1.157316   -0.197267
      4          6           0       -1.768248    2.127158   -0.388565
      5          6           0       -0.415816    1.788689   -0.336880
      6          6           0       -0.015781    0.464162   -0.088595
      7          6           0        1.423785    0.094972   -0.032069
      8          6           0        1.885241   -1.104295   -0.602594
      9          6           0        3.236685   -1.449335   -0.549077
     10          6           0        4.155461   -0.601731    0.075723
     11          6           0        3.710612    0.593684    0.646816
     12          6           0        2.358976    0.937989    0.593737
     13          6           0       -1.009085   -0.511350    0.106048
     14          1           0       -3.808482    1.411381   -0.237477
     15          1           0       -2.061127    3.153423   -0.589915
     16          1           0        0.336098    2.550985   -0.514522
     17          1           0        1.184987   -1.758929   -1.113174
     18          1           0        3.572854   -2.376771   -1.003900
     19          1           0        5.207015   -0.870067    0.117387
     20          1           0        4.414733    1.255429    1.143180
     21          1           0        2.020967    1.857016    1.063459
     22          1           0       -0.734453   -1.536907    0.326139
 ---------------------------------------------------------------------

 SCF Done:  E(RB3LYP) =  -922.933436875     A.U. after   15 cycles

 Excitation energies and oscillator strengths:

 Excited State   1:      Triplet-A      3.2763 eV  378.43 nm  f=0.0000  <S**2>=2.000
      46 -> 54        -0.15954
      47 -> 52        -0.19488
      48 -> 51         0.22234
      49 -> 50         0.59857
 This state for optimization and/or second-order correction.
 Total Energy, E(TD-HF/TD-DFT) =  -922.813036268
 Copying the excited state density for this state as the 1-particle RhoCI density.

 Excited State   2:      Triplet-A      3.8330 eV  323.46 nm  f=0.0000  <S**2>=2.000
      46 -> 50        -0.29914
      47 -> 52         0.34267
      48 -> 50         0.11929
      48 -> 51         0.37750
      49 -> 51         0.13003
      49 -> 54         0.27526

 Excited State   3:      Triplet-A      4.2780 eV  289.82 nm  f=0.0000  <S**2>=2.000
      46 -> 51        -0.14937
      48 -> 50         0.52531
      48 -> 51        -0.24688
      48 -> 54         0.12492
      49 -> 50         0.17760
      49 -> 51         0.26338

 Excited State   4:      Singlet-A      4.7455 eV  261.27 nm  f=0.0946  <S**2>=0.000
      48 -> 50         0.38940
      49 -> 50         0.42330
      49 -> 51        -0.37908

 Excited State   5:      Singlet-A      4.8947 eV  253.30 nm  f=0.3109  <S**2>=0.000
      47 -> 50         0.10265
      48 -> 50        -0.30890
      49 -> 50         0.53861
      49 -> 51         0.28878

 Excited State   6:      Singlet-A      4.9313 eV  251.42 nm  f=0.0135  <S**2>=0.000
      47 -> 50         0.49701
      48 -> 50         0.11445
      49 -> 52         0.45448

 The electronic state is 1-A.
 Alpha  occ. eigenvalues -- -101.55638 -10.26290 -10.22169 -10.21561 -10.21285
 Alpha  occ. eigenvalues --  -10.21230 -10.21197 -10.20752 -10.20503 -10.20486
 Alpha  occ. eigenvalues --  -10.20439 -10.20423 -10.20384  -9.47149  -7.23552
 Alpha  occ. eigenvalues --   -7.22585  -7.22557  -0.90019  -0.87159  -0.84306
 Alpha  occ. eigenvalues --   -0.78975  -0.75917  -0.74837  -0.73331  -0.64262
 Alpha  occ. eigenvalues --   -0.62799  -0.60502  -0.58735  -0.54012  -0.51283
 Alpha  occ. eigenvalues --   -0.48530  -0.48250  -0.45533  -0.45377  -0.43990
 Alpha  occ. eigenvalues --   -0.43566  -0.43064  -0.40334  -0.38557  -0.37952
 Alpha  occ. eigenvalues --   -0.37183  -0.35519  -0.35219  -0.33909  -0.31849
 Alpha  occ. eigenvalues --   -0.28842  -0.26497  -0.25882  -0.24151
 Alpha virt. eigenvalues --   -0.04903  -0.02897  -0.02278  -0.00295   0.00129
 Alpha virt. eigenvalues --    0.00640   0.01416   0.01774   0.02854   0.03144
 Alpha virt. eigenvalues --    0.04274   0.04612   0.05087   0.05361   0.05874

 Mulliken charges:
               1
     1  Cl   0.228116
     2  C   -0.150608
     3  C   -0.313339
     4  C   -0.293654
     5  C   -0.075340
     6  C    0.228084
     7  C    0.303916
     8  C   -0.192631
     9  C   -0.287881
    10  C   -0.116264
    11  C   -0.278539
    12  C   -0.169324
    13  C   -0.048746
    14  H    0.143858
    15  H    0.133178
    16  H    0.125017
    17  H    0.122916
    18  H    0.127664
    19  H    0.126265
    20  H    0.127056
    21  H    0.121200
    22  H    0.139058
 Sum of Mulliken charges =  -0.00000

 Dipole moment (field-independent basis, Debye):
    X=              1.5932    Y=              1.2361    Z=             -0.2603  Tot=              2.0332
 Quadrupole moment (field-independent basis, Debye-Ang):
   XX=            -79.8799   YY=            -76.5643   ZZ=            -87.1290
   XY=             -5.0147   XZ=              1.8752   YZ=              1.9321

 Normal termination of Gaussian 16 at Wed Sep 17 18:01:07 2025.
