 Gaussian 16, Revision C.02,
 Gaussian 16:  ES64L-G16RevC.02  7-Dec-2021

 ----------------------------------------------------------
 # td=(50-50,nstates=3) b3lyp/6-31+g(d,p) geom=connectivity
 ----------------------------------------------------------

 -------------------
 Title Card Required
 -------------------
 Symbolic Z-matrix:
 Charge =  0 Multiplicity = 1

                         Standard orientation:
 ---------------------------------------------------------------------
 Center     Atomic      Atomic             Coordinates (Angstroms)
 Number     Number       Type             X           Y           Z
 ---------------------------------------------------------------------
      1          6           0       -2.215004   -2.534362    3.120559
      2          6           0       -2.499245   -2.034845    1.782150
      3          6           0       -2.741423   -1.650323    0.655473
      4          6           0       -3.092934   -1.158903   -0.656284
      5          8           0       -3.835589   -1.734831   -1.425104
      6          6           0       -2.594579    0.273762   -1.001136
      7          8           0       -3.337345    1.043051   -1.571762
      8          6           0       -1.220188    0.689332   -0.545234
      9          6           0       -0.945000    1.926965    0.071160
     10          6           0       -1.955904    2.985898    0.365603
     11          7           0        0.326029    2.204994    0.474032
     12          8           0        0.607804    3.315186    1.052952
     13          6           0        1.340360    1.263741    0.258749
     14          6           0        2.657128    1.542902    0.669509
     15          6           0        3.652659    0.612333    0.449251
     16          6           0        3.347578   -0.612053   -0.189195
     17         17           0        4.634050   -1.765746   -0.454154
     18          6           0        2.066301   -0.910421   -0.606512
     19          6           0        1.053080    0.037106   -0.373170
     20          7           0       -0.252970   -0.231765   -0.782383
     21          8           0       -0.529473   -1.329567   -1.392556
     22          1           0       -3.108377   -2.990134    3.560517
     23          1           0       -1.431942   -3.299944    3.081364
     24          1           0       -1.874250   -1.731618    3.782684
     25          1           0       -2.955783    2.681447    0.068748
     26          1           0       -1.922721    3.232123    1.432030
     27          1           0       -1.689136    3.905094   -0.167508
     28          1           0        2.851048    2.493134    1.151009
     29          1           0        4.671423    0.814359    0.759959
     30          1           0        1.809307   -1.836883   -1.103507
 ---------------------------------------------------------------------

 SCF Done:  E(RB3LYP) =  -1409.35685411     A.U. after   18 cycles

 Excitation energies and oscillator strengths:

 Excited State   1:      Triplet-A      0.9244 eV 1341.23 nm  f=0.0000  <S**2>=2.000
      78 -> 79         0.70941
      78 -> 80        -0.22217
      78 -> 82         0.11942
      78 -> 83         0.10199
      78 <- 79         0.27032
      78 <- 80        -0.10682
 This state for optimization and/or second-order correction.
 Total Energy, E(TD-HF/TD-DFT) =  -1409.32288283
 Copying the excited state density for this state as the 1-particle RhoCI density.

 Excited State   2:      Triplet-A      2.3336 eV  531.29 nm  f=0.0000  <S**2>=2.000
      77 -> 79         0.50276
      77 -> 80         0.45118

 Excited State   3:      Triplet-A      2.5212 eV  491.76 nm  f=0.0000  <S**2>=2.000
      70 -> 79        -0.11975
      78 -> 79         0.20518
      78 -> 80         0.62123
      78 -> 81        -0.19044

 Excited State   4:      Singlet-A      2.6138 eV  474.34 nm  f=0.0313  <S**2>=0.000
      77 -> 79         0.11317
      78 -> 79         0.58297
      78 -> 80         0.35693

 Excited State   5:      Singlet-A      2.8251 eV  438.87 nm  f=0.0034  <S**2>=0.000
      77 -> 79         0.59243
      77 -> 80         0.33042
      78 -> 79        -0.11269

 Excited State   6:      Singlet-A      3.1525 eV  393.28 nm  f=0.0935  <S**2>=0.000
      78 -> 79        -0.33233
      78 -> 80         0.58396
      78 -> 81         0.11604
      78 -> 82         0.10608

 The electronic state is 1-A.
 Alpha  occ. eigenvalues -- -101.58600 -19.19685 -19.17740 -19.17421 -19.16716
 Alpha  occ. eigenvalues --  -14.52617 -14.51838 -10.32760 -10.32114 -10.30191
 Alpha  occ. eigenvalues --  -10.29621 -10.29598 -10.29396 -10.29327 -10.25367
 Alpha  occ. eigenvalues --  -10.25099 -10.24965 -10.24061 -10.23938 -10.21792
 Alpha  occ. eigenvalues --  -10.21530  -9.50093  -7.26518  -7.25529  -7.25479
 Alpha  occ. eigenvalues --   -1.16001  -1.14505  -1.09839  -1.06529  -0.96617
 Alpha  occ. eigenvalues --   -0.93220  -0.88859  -0.87985  -0.83179  -0.82115
 Alpha  occ. eigenvalues --   -0.81685  -0.77132  -0.75241  -0.73999  -0.69261
 Alpha  occ. eigenvalues --   -0.67615  -0.65468  -0.63440  -0.61522  -0.57807
 Alpha  occ. eigenvalues --   -0.56130  -0.53955  -0.53204  -0.51399  -0.50574
 Alpha  occ. eigenvalues --   -0.49711  -0.49613  -0.49061  -0.48716  -0.47737
 Alpha  occ. eigenvalues --   -0.46898  -0.46263  -0.46145  -0.45631  -0.44377
 Alpha  occ. eigenvalues --   -0.43841  -0.43172  -0.42521  -0.42350  -0.41232
 Alpha  occ. eigenvalues --   -0.39939  -0.36799  -0.34725  -0.33923  -0.31949
 Alpha  occ. eigenvalues --   -0.31419  -0.30452  -0.30145  -0.29598  -0.29435
 Alpha  occ. eigenvalues --   -0.29195  -0.27267  -0.23779
 Alpha virt. eigenvalues --   -0.12898  -0.10495  -0.08122  -0.04604  -0.03290
 Alpha virt. eigenvalues --   -0.01838  -0.01418  -0.00211   0.00470   0.01117
 Alpha virt. eigenvalues --    0.01612   0.01891   0.02373   0.03127   0.03258

 Mulliken charges:
               1
     1  C   -0.975097
     2  C    0.347355
     3  C    0.818641
     4  C   -0.301655
     5  O   -0.343769
     6  C   -0.577731
     7  O   -0.321471
     8  C    0.842867
     9  C    0.534127
    10  C   -0.753988
    11  N   -0.457232
    12  O    0.075302
    13  C    0.243347
    14  C   -0.614284
    15  C   -0.090499
    16  C    0.265821
    17  Cl   0.290772
    18  C   -0.358020
    19  C    0.106709
    20  N   -0.534128
    21  O    0.140724
    22  H    0.192726
    23  H    0.191542
    24  H    0.183378
    25  H    0.173355
    26  H    0.186126
    27  H    0.191408
    28  H    0.188050
    29  H    0.161513
    30  H    0.194110
 Sum of Mulliken charges =  -0.00000

 Dipole moment (field-independent basis, Debye):
    X=              3.9029    Y=              0.1884    Z=              5.2948  Tot=              6.5805
 Quadrupole moment (field-independent basis, Debye-Ang):
   XX=           -135.1759   YY=           -134.0125   ZZ=           -125.4544
   XY=             -3.5997   XZ=            -16.0189   YZ=            -13.1311

 Normal termination of Gaussian 16 at Wed Sep 17 17:47:03 2025.
