 Gaussian 16, Revision C.02,
 Gaussian 16:  ES64L-G16RevC.02  7-Dec-2021

 ----------------------------------------------------------
 # td=(50-50,nstates=3) b3lyp/6-31+g(d,p) geom=connectivity
 ----------------------------------------------------------

 -------------------
 Title Card Required
 -------------------
 Symbolic Z-matrix:
 Charge =  0 Multiplicity = 1

                         Standard orientation:
 ---------------------------------------------------------------------
 Center     Atomic      Atomic             Coordinates (Angstroms)
 Number     Number       Type             X           Y           Z
 ---------------------------------------------------------------------
      1          6           0        0.868412   -3.237502   -1.332916
      2          6           0        1.911191   -2.524942   -0.847197
      3          6           0        3.123273   -2.414802   -1.612030
      4          7           0        4.089168   -2.341773   -2.255124
      5          6           0        1.804097   -1.840793    0.424692
      6          6           0        2.423821   -0.976032    1.270152
      7          6           0        3.634962   -0.118398    1.470219
      8          6           0        4.845527   -0.504871    0.609508
      9          6           0        3.271000    1.395363    1.371510
     10         14           0        2.512852    2.164803   -0.200247
     11          6           0        2.219802    3.993814    0.164326
     12          6           0        3.541345    1.971982   -1.768554
     13          6           0        0.856916    1.377124   -0.501601
     14          6           0       -0.216031    0.833010   -0.716532
     15          6           0       -1.462440    0.119796   -0.952386
     16          8           0       -1.541446   -0.763430   -1.786214
     17          6           0       -2.634324    0.542264   -0.051400
     18          6           0       -2.998651    1.997358   -0.273052
     19          6           0       -4.271746    2.375736   -0.424551
     20          6           0       -5.415312    1.397735   -0.341521
     21          6           0       -4.942359    0.102226    0.304391
     22          8           0       -5.899151   -0.881352    0.102540
     23          6           0       -5.638655   -2.113923    0.775408
     24          8           0       -3.714876   -0.327949   -0.298360
     25          6           0        1.196042   -1.097759    2.107481
     26          8           0        0.711721   -0.699182    3.119541
     27          8           0        0.599110   -2.017969    1.172037
     28          1           0       -0.056020   -3.306007   -0.772751
     29          1           0        0.930844   -3.730297   -2.296093
     30          1           0        3.927589   -0.281585    2.518348
     31          1           0        5.706941    0.106760    0.896939
     32          1           0        5.116331   -1.554501    0.758005
     33          1           0        4.671070   -0.354704   -0.456911
     34          1           0        2.568297    1.639582    2.179984
     35          1           0        4.180495    1.973165    1.592751
     36          1           0        1.717996    4.484315   -0.676635
     37          1           0        3.171613    4.510785    0.333873
     38          1           0        1.597670    4.130861    1.055058
     39          1           0        4.560835    2.343290   -1.613030
     40          1           0        3.606671    0.933507   -2.105520
     41          1           0        3.092508    2.555237   -2.580356
     42          1           0       -2.265646    0.416462    0.986481
     43          1           0       -2.185461    2.717080   -0.293249
     44          1           0       -4.506435    3.423636   -0.596867
     45          1           0       -5.812141    1.164840   -1.337955
     46          1           0       -6.242541    1.817862    0.242785
     47          1           0       -4.758584    0.245714    1.387439
     48          1           0       -6.509773   -2.747640    0.601123
     49          1           0       -4.741778   -2.598233    0.377809
     50          1           0       -5.518682   -1.950212    1.856077
 ---------------------------------------------------------------------

 SCF Done:  E(RB3LYP) =  -1496.26842842     A.U. after   17 cycles

 Excitation energies and oscillator strengths:

 Excited State   1:      Triplet-A      1.9473 eV  636.69 nm  f=0.0000  <S**2>=2.000
      94 ->103         0.12708
     101 ->103         0.25353
     102 ->103         0.63021
     102 <-103         0.11789
 This state for optimization and/or second-order correction.
 Total Energy, E(TD-HF/TD-DFT) =  -1496.19686514
 Copying the excited state density for this state as the 1-particle RhoCI density.

 Excited State   2:      Triplet-A      3.0812 eV  402.39 nm  f=0.0000  <S**2>=2.000
      96 ->104        -0.12672
      98 ->104         0.31123
      99 ->104        -0.17198
     101 ->103         0.21782
     101 ->104         0.42230
     102 ->103        -0.10117
     102 ->104        -0.28005

 Excited State   3:      Singlet-A      3.3814 eV  366.67 nm  f=0.0487  <S**2>=0.000
      94 ->103        -0.10698
     101 ->103        -0.17625
     101 ->104        -0.11606
     102 ->103         0.63616
     102 ->104         0.12032

 Excited State   4:      Triplet-A      3.4470 eV  359.69 nm  f=0.0000  <S**2>=2.000
      94 ->103         0.49729
      94 ->105        -0.12018
      96 ->103         0.14869
      97 ->104         0.10072
     101 ->103        -0.29801
     102 ->104        -0.11210
     102 ->105        -0.22405

 Excited State   5:      Singlet-A      3.4605 eV  358.28 nm  f=0.0444  <S**2>=0.000
      94 ->103        -0.10086
     101 ->103         0.61975
     101 ->104         0.15779
     102 ->103         0.21904

 Excited State   6:      Singlet-A      3.6891 eV  336.08 nm  f=0.0053  <S**2>=0.000
      98 ->104         0.25899
      99 ->104        -0.14771
     101 ->103        -0.26261
     101 ->104         0.45129
     102 ->103         0.12680
     102 ->104        -0.30566

 The electronic state is 1-A.
 Alpha  occ. eigenvalues --  -66.16045 -19.20863 -19.19230 -19.17016 -19.16891
 Alpha  occ. eigenvalues --  -19.16869 -14.36789 -10.35056 -10.31228 -10.30799
 Alpha  occ. eigenvalues --  -10.29641 -10.27892 -10.26853 -10.26026 -10.25214
 Alpha  occ. eigenvalues --  -10.23671 -10.23500 -10.23177 -10.21565 -10.20941
 Alpha  occ. eigenvalues --  -10.20731 -10.20632 -10.19966 -10.19932 -10.19513
 Alpha  occ. eigenvalues --  -10.18463 -10.18237  -5.30297  -3.66324  -3.66122
 Alpha  occ. eigenvalues --   -3.66105  -1.13405  -1.08669  -1.07399  -1.06494
 Alpha  occ. eigenvalues --   -1.02495  -0.93648  -0.86160  -0.84303  -0.82176
 Alpha  occ. eigenvalues --   -0.80227  -0.77814  -0.77297  -0.73034  -0.71361
 Alpha  occ. eigenvalues --   -0.70627  -0.69858  -0.69560  -0.68263  -0.65714
 Alpha  occ. eigenvalues --   -0.63996  -0.62951  -0.62274  -0.55653  -0.54748
 Alpha  occ. eigenvalues --   -0.54133  -0.53426  -0.52714  -0.51623  -0.50493
 Alpha  occ. eigenvalues --   -0.50001  -0.49726  -0.49053  -0.48677  -0.47081
 Alpha  occ. eigenvalues --   -0.46604  -0.46078  -0.45694  -0.44696  -0.43972
 Alpha  occ. eigenvalues --   -0.43624  -0.43409  -0.42875  -0.42507  -0.41698
 Alpha  occ. eigenvalues --   -0.41364  -0.41148  -0.41045  -0.40752  -0.39766
 Alpha  occ. eigenvalues --   -0.39052  -0.38881  -0.38533  -0.38186  -0.37966
 Alpha  occ. eigenvalues --   -0.37745  -0.37104  -0.36679  -0.35740  -0.34552
 Alpha  occ. eigenvalues --   -0.33674  -0.33368  -0.32543  -0.31580  -0.31020
 Alpha  occ. eigenvalues --   -0.30109  -0.29801  -0.28760  -0.28342  -0.27308
 Alpha  occ. eigenvalues --   -0.25957  -0.25713
 Alpha virt. eigenvalues --   -0.11240  -0.07991  -0.04253  -0.01975  -0.01728
 Alpha virt. eigenvalues --   -0.00760  -0.00558  -0.00119   0.00440   0.00807
 Alpha virt. eigenvalues --    0.01510   0.01638   0.02176   0.02630   0.02907

 Mulliken charges:
               1
     1  C   -0.009963
     2  C    1.514650
     3  C   -0.608701
     4  N   -0.443601
     5  C   -0.261267
     6  C    0.082423
     7  C   -0.152741
     8  C   -0.588824
     9  C   -0.541016
    10  Si   1.224168
    11  C   -0.644304
    12  C   -0.614153
    13  C   -1.042161
    14  C    0.854027
    15  C   -0.505648
    16  O   -0.292323
    17  C   -0.015916
    18  C   -0.075414
    19  C   -0.001183
    20  C   -0.463611
    21  C    0.212014
    22  O   -0.291146
    23  C   -0.144448
    24  O   -0.328514
    25  C    0.132861
    26  O   -0.352931
    27  O   -0.300626
    28  H    0.195869
    29  H    0.175634
    30  H    0.154576
    31  H    0.146221
    32  H    0.158257
    33  H    0.161612
    34  H    0.174196
    35  H    0.158155
    36  H    0.170296
    37  H    0.164927
    38  H    0.169929
    39  H    0.166062
    40  H    0.181890
    41  H    0.172100
    42  H    0.165990
    43  H    0.139843
    44  H    0.130331
    45  H    0.181873
    46  H    0.157472
    47  H    0.100774
    48  H    0.144008
    49  H    0.163052
    50  H    0.125281
 Sum of Mulliken charges =  -0.00000

 Dipole moment (field-independent basis, Debye):
    X=              1.1847    Y=              2.7193    Z=              1.9889  Tot=              3.5713
 Quadrupole moment (field-independent basis, Debye-Ang):
   XX=           -167.1557   YY=           -152.7781   ZZ=           -182.8940
   XY=              5.7285   XZ=              3.2965   YZ=             -2.5167

 Normal termination of Gaussian 16 at Wed Jul 30 18:47:40 2025.
