 Gaussian 16, Revision C.02,
 Gaussian 16:  ES64L-G16RevC.02  7-Dec-2021

 ----------------------------------------------------------
 # td=(50-50,nstates=3) b3lyp/6-31+g(d,p) geom=connectivity
 ----------------------------------------------------------

 -------------------
 Title Card Required
 -------------------
 Symbolic Z-matrix:
 Charge =  0 Multiplicity = 1

                         Standard orientation:
 ---------------------------------------------------------------------
 Center     Atomic      Atomic             Coordinates (Angstroms)
 Number     Number       Type             X           Y           Z
 ---------------------------------------------------------------------
      1          6           0       -4.036204    0.987269    0.333810
      2          6           0       -3.238213   -0.063405    0.072363
      3          6           0       -3.776452   -1.228269   -0.585110
      4          7           0       -4.209336   -2.158992   -1.132083
      5          6           0       -1.812194   -0.117779    0.451267
      6          6           0       -0.751511    0.671808    0.208139
      7          6           0       -0.580301    1.934469   -0.606831
      8          6           0       -1.513264    2.071001   -1.821341
      9          6           0       -0.631187    3.195657    0.285422
     10          6           0        0.426056    0.059822    0.961256
     11          6           0        1.704080   -0.157984    0.184157
     12          6           0        1.796895   -1.066216   -0.875411
     13          9           0        0.680240   -1.762081   -1.202922
     14          6           0        2.958822   -1.293355   -1.599108
     15          6           0        4.105578   -0.574273   -1.253264
     16          6           0        4.077183    0.348799   -0.206324
     17          6           0        2.883187    0.530474    0.480128
     18          9           0        2.857897    1.433823    1.496941
     19          6           0       -0.169370   -1.234604    1.532707
     20          8           0        0.361646   -2.100074    2.171413
     21          8           0       -1.510099   -1.248448    1.229841
     22          1           0       -3.654620    1.853240    0.862550
     23          1           0       -5.076627    0.992558    0.027669
     24          1           0        0.441319    1.876514   -1.007242
     25          1           0       -1.177576    2.906640   -2.444153
     26          1           0       -1.505197    1.165573   -2.435912
     27          1           0       -2.547486    2.273010   -1.531300
     28          1           0       -0.373611    4.084234   -0.300818
     29          1           0        0.072387    3.132409    1.121612
     30          1           0       -1.635249    3.343539    0.698015
     31          1           0        0.673649    0.684828    1.829242
     32          1           0        2.953968   -2.019259   -2.403960
     33          1           0        5.027364   -0.736226   -1.802209
     34          1           0        4.952801    0.917892    0.083737
 ---------------------------------------------------------------------

 SCF Done:  E(RB3LYP) =  -1022.41744277     A.U. after   16 cycles

 Excitation energies and oscillator strengths:

 Excited State   1:      Triplet-A      2.8992 eV  427.65 nm  f=0.0000  <S**2>=2.000
      71 -> 76        -0.28491
      72 -> 76         0.22585
      75 -> 76         0.56660
      75 -> 78         0.13124
 This state for optimization and/or second-order correction.
 Total Energy, E(TD-HF/TD-DFT) =  -1022.31089845
 Copying the excited state density for this state as the 1-particle RhoCI density.

 Excited State   2:      Triplet-A      3.5830 eV  346.04 nm  f=0.0000  <S**2>=2.000
      71 -> 76         0.38665
      72 -> 76        -0.34722
      75 -> 76         0.21776
      75 -> 78         0.33680

 Excited State   3:      Triplet-A      3.7383 eV  331.66 nm  f=0.0000  <S**2>=2.000
      71 -> 77        -0.10541
      72 -> 77        -0.16555
      73 -> 77         0.47267
      74 -> 78        -0.18005
      74 -> 79         0.42441

 Excited State   4:      Singlet-A      4.0745 eV  304.29 nm  f=0.0759  <S**2>=0.000
      75 -> 76         0.69176

 Excited State   5:      Singlet-A      4.7353 eV  261.83 nm  f=0.0025  <S**2>=0.000
      73 -> 76         0.53025
      74 -> 76         0.44577

 Excited State   6:      Singlet-A      4.7690 eV  259.98 nm  f=0.0005  <S**2>=0.000
      73 -> 76        -0.43271
      74 -> 76         0.54661

 The electronic state is 1-A.
 Alpha  occ. eigenvalues --  -24.75088 -24.74757 -19.22891 -19.16706 -14.35672
 Alpha  occ. eigenvalues --  -10.34306 -10.31099 -10.30953 -10.28672 -10.27408
 Alpha  occ. eigenvalues --  -10.25115 -10.24776 -10.24545 -10.24515 -10.23538
 Alpha  occ. eigenvalues --  -10.23365 -10.22956 -10.22724 -10.22638 -10.20398
 Alpha  occ. eigenvalues --  -10.19752  -1.25566  -1.25356  -1.13804  -1.05767
 Alpha  occ. eigenvalues --   -0.92380  -0.90519  -0.86960  -0.85009  -0.81661
 Alpha  occ. eigenvalues --   -0.78249  -0.77885  -0.74400  -0.70876  -0.68584
 Alpha  occ. eigenvalues --   -0.65746  -0.65453  -0.64500  -0.61765  -0.58508
 Alpha  occ. eigenvalues --   -0.57351  -0.56204  -0.54355  -0.52248  -0.51609
 Alpha  occ. eigenvalues --   -0.50832  -0.50324  -0.49358  -0.48862  -0.48248
 Alpha  occ. eigenvalues --   -0.47042  -0.46822  -0.46431  -0.45165  -0.44301
 Alpha  occ. eigenvalues --   -0.43213  -0.42519  -0.41922  -0.41347  -0.41108
 Alpha  occ. eigenvalues --   -0.40164  -0.39446  -0.38861  -0.38248  -0.37780
 Alpha  occ. eigenvalues --   -0.37463  -0.37066  -0.36488  -0.35777  -0.34772
 Alpha  occ. eigenvalues --   -0.30733  -0.30077  -0.28058  -0.27617  -0.25964
 Alpha virt. eigenvalues --   -0.08440  -0.04890  -0.03780  -0.03449  -0.01564
 Alpha virt. eigenvalues --   -0.00488  -0.00225   0.00390   0.00744   0.01421
 Alpha virt. eigenvalues --    0.02111   0.02332   0.03182   0.03384   0.03397

 Mulliken charges:
               1
     1  C   -0.327535
     2  C   -0.196208
     3  C   -0.179056
     4  N   -0.470692
     5  C    0.983069
     6  C   -0.691764
     7  C    0.456560
     8  C   -0.586975
     9  C   -0.566565
    10  C    0.579089
    11  C    0.306128
    12  C   -0.443214
    13  F   -0.289368
    14  C    0.379918
    15  C   -0.183315
    16  C    0.296435
    17  C   -0.373317
    18  F   -0.328048
    19  C    0.216494
    20  O   -0.397452
    21  O   -0.205004
    22  H    0.156216
    23  H    0.169541
    24  H    0.141757
    25  H    0.148715
    26  H    0.160154
    27  H    0.155272
    28  H    0.153730
    29  H    0.154198
    30  H    0.142859
    31  H    0.193677
    32  H    0.151130
    33  H    0.144844
    34  H    0.148727
 Sum of Mulliken charges =  -0.00000

 Dipole moment (field-independent basis, Debye):
    X=              2.7096    Y=              6.6956    Z=             -1.6899  Tot=              7.4181
 Quadrupole moment (field-independent basis, Debye-Ang):
   XX=           -112.5295   YY=           -132.4589   ZZ=           -126.7082
   XY=            -18.3683   XZ=            -13.2066   YZ=              4.0996

 Normal termination of Gaussian 16 at Tue Jul 29 22:40:06 2025.
