 Gaussian 16, Revision C.02,
 Gaussian 16:  ES64L-G16RevC.02  7-Dec-2021

 ----------------------------------------------------------
 # td=(50-50,nstates=3) b3lyp/6-31+g(d,p) geom=connectivity
 ----------------------------------------------------------

 -------------------
 Title Card Required
 -------------------
 Symbolic Z-matrix:
 Charge =  0 Multiplicity = 1

                         Standard orientation:
 ---------------------------------------------------------------------
 Center     Atomic      Atomic             Coordinates (Angstroms)
 Number     Number       Type             X           Y           Z
 ---------------------------------------------------------------------
      1          6           0       -1.076569   -2.927310    0.734735
      2          6           0        0.142250   -2.364073   -0.034229
      3          6           0        1.396876   -2.762013    0.780176
      4          6           0        0.174607   -3.045648   -1.427515
      5          6           0        0.046489   -0.829019   -0.217253
      6          6           0       -1.198249   -0.194157   -0.047871
      7          6           0       -1.411644    1.177433   -0.195324
      8          6           0       -2.778252    1.825586   -0.003950
      9          6           0       -3.946031    0.881106    0.187155
     10          6           0       -4.607392    0.328173   -0.919698
     11          6           0       -5.685482   -0.543284   -0.748502
     12          6           0       -6.122334   -0.874690    0.537572
     13          6           0       -5.474880   -0.327312    1.648048
     14          6           0       -4.396140    0.543956    1.471350
     15          6           0       -0.296143    1.978378   -0.514102
     16          6           0       -0.427032    3.398723   -0.664913
     17          7           0       -0.537019    4.552081   -0.783011
     18          6           0        0.961197    1.384898   -0.677691
     19          6           0        1.145986    0.003969   -0.553578
     20          6           0        2.540703   -0.462948   -0.917521
     21          8           0        2.719731   -1.151235   -1.915569
     22          6           0        3.700392    0.004201   -0.091564
     23          6           0        4.997921   -0.178230   -0.601785
     24          6           0        6.107536    0.220510    0.138938
     25          6           0        5.935657    0.797203    1.403328
     26          6           0        4.650583    0.974036    1.922575
     27          6           0        3.536381    0.583274    1.177602
     28          1           0       -2.011265   -2.827957    0.175171
     29          1           0       -0.921255   -3.997104    0.906036
     30          1           0       -1.205135   -2.448135    1.711565
     31          1           0        2.332477   -2.542705    0.265137
     32          1           0        1.382744   -3.842086    0.960919
     33          1           0        1.411180   -2.261440    1.754728
     34          1           0       -0.733448   -2.807813   -1.992660
     35          1           0        1.036922   -2.724868   -2.013429
     36          1           0        0.217685   -4.134134   -1.302626
     37          1           0       -2.058511   -0.794150    0.211812
     38          1           0       -2.717167    2.505045    0.856087
     39          1           0       -2.972883    2.472159   -0.868465
     40          1           0       -4.277062    0.585609   -1.923253
     41          1           0       -6.187636   -0.957453   -1.618191
     42          1           0       -6.963589   -1.548286    0.672266
     43          1           0       -5.811663   -0.572484    2.651320
     44          1           0       -3.901519    0.971252    2.340495
     45          1           0        1.808021    2.018060   -0.923798
     46          1           0        5.110674   -0.632883   -1.580434
     47          1           0        7.106241    0.083866   -0.265112
     48          1           0        6.801732    1.107019    1.981123
     49          1           0        4.515296    1.416726    2.904814
     50          1           0        2.540864    0.720502    1.586227
 ---------------------------------------------------------------------

 SCF Done:  E(RB3LYP) =  -1096.55620908     A.U. after   17 cycles

 Excitation energies and oscillator strengths:

 Excited State   1:      Triplet-A      3.0727 eV  403.50 nm  f=0.0000  <S**2>=2.000
      88 -> 95        -0.11107
      89 -> 95        -0.11908
      91 -> 95         0.40171
      91 -> 96         0.13727
      93 -> 95        -0.28913
      94 -> 95        -0.37415
 This state for optimization and/or second-order correction.
 Total Energy, E(TD-HF/TD-DFT) =  -1096.44328904
 Copying the excited state density for this state as the 1-particle RhoCI density.

 Excited State   2:      Triplet-A      3.2832 eV  377.63 nm  f=0.0000  <S**2>=2.000
      88 -> 95        -0.18835
      88 -> 96        -0.10021
      90 -> 95        -0.14719
      90 -> 97         0.12074
      91 -> 95         0.30679
      91 -> 96        -0.16052
      92 -> 96         0.19032
      93 -> 96        -0.25790
      94 -> 96        -0.29926
      94 -> 97        -0.10113

 Excited State   3:      Triplet-A      3.3165 eV  373.84 nm  f=0.0000  <S**2>=2.000
      88 -> 95        -0.20724
      88 -> 97        -0.14089
      89 -> 95         0.55488
      90 -> 98        -0.14530
      91 -> 96         0.11438
      93 -> 96         0.10470
      94 -> 96         0.12681

 Excited State   4:      Singlet-A      3.6183 eV  342.66 nm  f=0.0015  <S**2>=0.000
      89 -> 95        -0.34369
      91 -> 95         0.39393
      93 -> 95        -0.27132
      94 -> 95        -0.35644

 Excited State   5:      Singlet-A      4.2353 eV  292.74 nm  f=0.0353  <S**2>=0.000
      89 -> 95        -0.21606
      91 -> 95         0.38348
      92 -> 95        -0.18015
      93 -> 95         0.26519
      94 -> 95         0.41951

 Excited State   6:      Singlet-A      4.3922 eV  282.28 nm  f=0.0415  <S**2>=0.000
      88 -> 95        -0.17688
      89 -> 95        -0.14341
      90 -> 95        -0.24157
      91 -> 95        -0.10591
      92 -> 95         0.39767
      93 -> 95        -0.27603
      94 -> 95         0.33014
      94 -> 96        -0.13922

 The electronic state is 1-A.
 Alpha  occ. eigenvalues --  -19.16078 -14.34823 -10.29991 -10.24432 -10.23960
 Alpha  occ. eigenvalues --  -10.23549 -10.23198 -10.22795 -10.22553 -10.22165
 Alpha  occ. eigenvalues --  -10.22076 -10.21998 -10.21969 -10.21592 -10.21539
 Alpha  occ. eigenvalues --  -10.21519 -10.21493 -10.21461 -10.20921 -10.20685
 Alpha  occ. eigenvalues --  -10.20663 -10.20561 -10.20545 -10.20502 -10.18575
 Alpha  occ. eigenvalues --  -10.18485 -10.17606  -1.05945  -0.91927  -0.89341
 Alpha  occ. eigenvalues --   -0.87937  -0.87147  -0.83747  -0.81461  -0.78683
 Alpha  occ. eigenvalues --   -0.77439  -0.76984  -0.76474  -0.75909  -0.71393
 Alpha  occ. eigenvalues --   -0.69502  -0.69115  -0.66352  -0.65824  -0.63263
 Alpha  occ. eigenvalues --   -0.62454  -0.61979  -0.59588  -0.59176  -0.56481
 Alpha  occ. eigenvalues --   -0.55210  -0.52781  -0.51516  -0.50454  -0.48915
 Alpha  occ. eigenvalues --   -0.48053  -0.47923  -0.47462  -0.46718  -0.46000
 Alpha  occ. eigenvalues --   -0.45662  -0.44910  -0.44366  -0.44320  -0.43525
 Alpha  occ. eigenvalues --   -0.43385  -0.42697  -0.42386  -0.41715  -0.41334
 Alpha  occ. eigenvalues --   -0.40105  -0.38985  -0.38813  -0.38602  -0.37938
 Alpha  occ. eigenvalues --   -0.37722  -0.37288  -0.37103  -0.36953  -0.36406
 Alpha  occ. eigenvalues --   -0.35517  -0.35457  -0.35245  -0.34181  -0.34100
 Alpha  occ. eigenvalues --   -0.33542  -0.32857  -0.28085  -0.27736  -0.27549
 Alpha  occ. eigenvalues --   -0.27055  -0.26553  -0.26182  -0.25987
 Alpha virt. eigenvalues --   -0.08345  -0.06265  -0.03941  -0.02720  -0.02645
 Alpha virt. eigenvalues --   -0.02364  -0.01020  -0.00194   0.00800   0.00935
 Alpha virt. eigenvalues --    0.01132   0.01542   0.01951   0.02238   0.02330

 Mulliken charges:
               1
     1  C   -0.490773
     2  C    0.258158
     3  C   -0.466882
     4  C   -0.558757
     5  C    0.002999
     6  C   -0.186520
     7  C   -0.185504
     8  C   -0.706412
     9  C    0.505527
    10  C   -0.271745
    11  C   -0.187500
    12  C   -0.100820
    13  C   -0.231824
    14  C   -0.100765
    15  C    0.198003
    16  C    0.107215
    17  N   -0.557621
    18  C    0.506078
    19  C   -0.303653
    20  C    0.167091
    21  O   -0.305649
    22  C    0.361471
    23  C    0.245216
    24  C   -0.067599
    25  C   -0.100908
    26  C   -0.259231
    27  C   -0.584058
    28  H    0.150480
    29  H    0.149430
    30  H    0.155284
    31  H    0.160156
    32  H    0.146153
    33  H    0.149005
    34  H    0.146664
    35  H    0.192516
    36  H    0.143209
    37  H    0.127195
    38  H    0.169105
    39  H    0.171151
    40  H    0.118556
    41  H    0.127874
    42  H    0.126551
    43  H    0.126758
    44  H    0.113826
    45  H    0.152659
    46  H    0.158366
    47  H    0.134257
    48  H    0.132789
    49  H    0.133404
    50  H    0.129073
 Sum of Mulliken charges =  -0.00000

 Dipole moment (field-independent basis, Debye):
    X=              0.3167    Y=             -3.3489    Z=              3.1653  Tot=              4.6190
 Quadrupole moment (field-independent basis, Debye-Ang):
   XX=           -137.3439   YY=           -185.0832   ZZ=           -159.1799
   XY=             11.0171   XZ=              6.4207   YZ=              3.2951

 Normal termination of Gaussian 16 at Wed Jul 30 18:31:59 2025.
