 Gaussian 16, Revision C.02,
 Gaussian 16:  ES64L-G16RevC.02  7-Dec-2021

 ----------------------------------------------------------
 # td=(50-50,nstates=3) b3lyp/6-31+g(d,p) geom=connectivity
 ----------------------------------------------------------

 -------------------
 Title Card Required
 -------------------
 Symbolic Z-matrix:
 Charge =  0 Multiplicity = 1

                         Standard orientation:
 ---------------------------------------------------------------------
 Center     Atomic      Atomic             Coordinates (Angstroms)
 Number     Number       Type             X           Y           Z
 ---------------------------------------------------------------------
      1          6           0        4.941913   -1.659982    0.281018
      2          6           0        3.970081   -0.767278    0.575228
      3          6           0        4.020681    0.031161    1.771725
      4          7           0        4.052001    0.679629    2.736191
      5          6           0        2.833196   -0.573847   -0.296022
      6          6           0        1.700214    0.163359   -0.404439
      7          6           0        0.992735    1.257587    0.336163
      8          6           0        1.079746    2.594432   -0.432765
      9          6           0       -0.446860    0.852113    0.755172
     10          6           0       -1.526270    0.745097   -0.369939
     11          6           0       -2.020581    2.073657   -0.770106
     12          7           0       -2.420564    3.124110   -1.063708
     13          6           0       -2.687916   -0.150943    0.066998
     14          6           0       -3.662241    0.302633    0.965952
     15          6           0       -4.680907   -0.551379    1.393705
     16          6           0       -4.738628   -1.867441    0.926111
     17          6           0       -3.773986   -2.323352    0.024713
     18          6           0       -2.754701   -1.468418   -0.403421
     19          6           0        1.480152   -0.589565   -1.678634
     20          8           0        0.715686   -0.709138   -2.582201
     21          8           0        2.709540   -1.335616   -1.488700
     22          1           0        4.879154   -2.249237   -0.626721
     23          1           0        5.791729   -1.801042    0.938701
     24          1           0        1.539900    1.386869    1.277652
     25          1           0        0.560147    3.386274    0.114684
     26          1           0        2.125867    2.890691   -0.554309
     27          1           0        0.631055    2.527777   -1.427738
     28          1           0       -0.399204   -0.124998    1.246074
     29          1           0       -0.800414    1.563845    1.509154
     30          1           0       -1.075717    0.296466   -1.262710
     31          1           0       -3.636855    1.329412    1.320821
     32          1           0       -5.432991   -0.185625    2.086646
     33          1           0       -5.533898   -2.529299    1.256031
     34          1           0       -3.816770   -3.340733   -0.353114
     35          1           0       -2.013653   -1.825549   -1.114099
 ---------------------------------------------------------------------

 SCF Done:  E(RB3LYP) =  -916.142727104     A.U. after   17 cycles

 Excitation energies and oscillator strengths:

 Excited State   1:      Triplet-A      1.9167 eV  646.86 nm  f=0.0000  <S**2>=2.000
      68 -> 74         0.13919
      71 -> 74         0.66201
      73 -> 74         0.19621
      71 <- 74         0.12867
 This state for optimization and/or second-order correction.
 Total Energy, E(TD-HF/TD-DFT) =  -916.072289408
 Copying the excited state density for this state as the 1-particle RhoCI density.

 Excited State   2:      Singlet-A      3.2753 eV  378.55 nm  f=0.0254  <S**2>=0.000
      73 -> 74         0.70163

 Excited State   3:      Triplet-A      3.2903 eV  376.81 nm  f=0.0000  <S**2>=2.000
      71 -> 74        -0.18424
      73 -> 74         0.67534

 Excited State   4:      Singlet-A      3.4281 eV  361.67 nm  f=0.0077  <S**2>=0.000
      71 -> 74        -0.11532
      72 -> 74         0.69522

 Excited State   5:      Triplet-A      3.4293 eV  361.54 nm  f=0.0000  <S**2>=2.000
      72 -> 74         0.70267

 Excited State   6:      Singlet-A      3.4609 eV  358.24 nm  f=0.1426  <S**2>=0.000
      68 -> 74        -0.16062
      71 -> 74         0.66750
      72 -> 74         0.12005

 The electronic state is 1-A.
 Alpha  occ. eigenvalues --  -19.22216 -19.20834 -14.38199 -14.34455 -10.36749
 Alpha  occ. eigenvalues --  -10.31929 -10.29572 -10.27323 -10.26812 -10.25425
 Alpha  occ. eigenvalues --  -10.24975 -10.24016 -10.23693 -10.22601 -10.22473
 Alpha  occ. eigenvalues --  -10.21011 -10.20942 -10.20932 -10.20880 -10.20805
 Alpha  occ. eigenvalues --  -10.20010  -1.14808  -1.08999  -0.94966  -0.91621
 Alpha  occ. eigenvalues --   -0.88043  -0.87713  -0.85807  -0.82130  -0.78255
 Alpha  occ. eigenvalues --   -0.76294  -0.74051  -0.71715  -0.69587  -0.66943
 Alpha  occ. eigenvalues --   -0.63296  -0.62558  -0.61139  -0.56278  -0.55379
 Alpha  occ. eigenvalues --   -0.54327  -0.52926  -0.51375  -0.51060  -0.50158
 Alpha  occ. eigenvalues --   -0.49080  -0.47779  -0.46689  -0.45694  -0.45249
 Alpha  occ. eigenvalues --   -0.44503  -0.43826  -0.43526  -0.43204  -0.42840
 Alpha  occ. eigenvalues --   -0.41269  -0.40071  -0.39103  -0.39004  -0.38406
 Alpha  occ. eigenvalues --   -0.37691  -0.37588  -0.37104  -0.36669  -0.36261
 Alpha  occ. eigenvalues --   -0.35751  -0.33417  -0.33122  -0.32856  -0.32170
 Alpha  occ. eigenvalues --   -0.27380  -0.26956  -0.26472
 Alpha virt. eigenvalues --   -0.12832  -0.05613  -0.03045  -0.02872  -0.02368
 Alpha virt. eigenvalues --   -0.01018  -0.00114   0.00332   0.00834   0.00974
 Alpha virt. eigenvalues --    0.01902   0.02072   0.02486   0.02778   0.03203

 Mulliken charges:
               1
     1  C   -0.097862
     2  C    1.102335
     3  C   -0.858901
     4  N   -0.455586
     5  C    0.399892
     6  C   -0.313995
     7  C    0.147903
     8  C   -0.555563
     9  C   -0.634447
    10  C    0.384988
    11  C    0.008129
    12  N   -0.451901
    13  C    0.132246
    14  C    0.213880
    15  C    0.008973
    16  C   -0.100266
    17  C   -0.324848
    18  C   -0.579088
    19  C    0.581471
    20  O   -0.398275
    21  O   -0.394568
    22  H    0.193300
    23  H    0.179484
    24  H    0.152329
    25  H    0.169839
    26  H    0.153601
    27  H    0.173640
    28  H    0.162765
    29  H    0.166880
    30  H    0.185712
    31  H    0.129187
    32  H    0.130929
    33  H    0.128156
    34  H    0.130661
    35  H    0.129001
 Sum of Mulliken charges =  -0.00000

 Dipole moment (field-independent basis, Debye):
    X=              2.8255    Y=             -4.0655    Z=              1.8490  Tot=              5.2850
 Quadrupole moment (field-independent basis, Debye-Ang):
   XX=           -109.4948   YY=           -130.2872   ZZ=           -139.8243
   XY=              2.9060   XZ=            -13.3162   YZ=              0.2008

 Normal termination of Gaussian 16 at Tue Jul 29 22:41:11 2025.
