 Gaussian 16, Revision C.02,
 Gaussian 16:  ES64L-G16RevC.02  7-Dec-2021

 ----------------------------------------------------------
 # td=(50-50,nstates=3) b3lyp/6-31+g(d,p) geom=connectivity
 ----------------------------------------------------------

 -------------------
 Title Card Required
 -------------------
 Symbolic Z-matrix:
 Charge =  0 Multiplicity = 1

                         Standard orientation:
 ---------------------------------------------------------------------
 Center     Atomic      Atomic             Coordinates (Angstroms)
 Number     Number       Type             X           Y           Z
 ---------------------------------------------------------------------
      1          6           0        2.976422    2.824732   -0.000191
      2          8           0        2.767617    1.410060    0.000002
      3          6           0        1.514972    0.920676    0.000033
      4          6           0        0.380873    1.676787   -0.000063
      5          6           0       -0.952149    1.111136   -0.000112
      6          6           0       -2.065161    1.935419   -0.000102
      7          6           0       -3.527523    1.543231   -0.000385
      8          6           0       -1.838702    3.347311    0.000114
      9          7           0       -1.690501    4.504433    0.000358
     10          6           0       -1.014585   -0.352601   -0.000068
     11          8           0       -2.268097   -0.879446   -0.000193
     12          6           0       -2.410126   -2.300421    0.000240
     13          6           0       -3.845122   -2.601351    0.000225
     14          7           0       -4.973839   -2.866915    0.000107
     15          6           0        0.117925   -1.112498    0.000179
     16          6           0        1.437542   -0.538239    0.000106
     17          6           0        2.556409   -1.366833    0.000012
     18          6           0        3.923763   -0.954306    0.000153
     19          7           0        5.068442   -0.736909    0.000290
     20          6           0        2.374915   -2.785876   -0.000166
     21          7           0        2.191111   -3.936854   -0.000406
     22          1           0        2.544395    3.280773   -0.897807
     23          1           0        2.544517    3.280971    0.897384
     24          1           0        4.057849    2.954873   -0.000272
     25          1           0        0.458991    2.755553   -0.000130
     26          1           0       -3.778651    0.943707    0.879066
     27          1           0       -4.151612    2.437844   -0.000805
     28          1           0       -3.778169    0.943026   -0.879478
     29          1           0       -1.945892   -2.739700   -0.891862
     30          1           0       -1.946060   -2.739142    0.892701
     31          1           0        0.055256   -2.192109    0.000438
 ---------------------------------------------------------------------

 SCF Done:  E(RB3LYP) =  -946.981461939     A.U. after   17 cycles

 Excitation energies and oscillator strengths:

 Excited State   1:      Triplet-A      0.8972 eV 1381.95 nm  f=0.0000  <S**2>=2.000
      72 -> 73         0.74620
      72 <- 73         0.26748
 This state for optimization and/or second-order correction.
 Total Energy, E(TD-HF/TD-DFT) =  -946.948491539
 Copying the excited state density for this state as the 1-particle RhoCI density.

 Excited State   2:      Triplet-A      2.1359 eV  580.49 nm  f=0.0000  <S**2>=2.000
      71 -> 73         0.69478

 Excited State   3:      Singlet-A      2.7173 eV  456.27 nm  f=0.1306  <S**2>=0.000
      71 -> 73         0.58364
      72 -> 73         0.39383

 Excited State   4:      Singlet-A      3.0657 eV  404.42 nm  f=0.7797  <S**2>=0.000
      71 -> 73        -0.39037
      72 -> 73         0.59650
      72 <- 73        -0.13515

 Excited State   5:      Triplet-A      3.3088 eV  374.71 nm  f=0.0000  <S**2>=2.000
      70 -> 73         0.57974
      72 -> 74        -0.37657

 Excited State   6:      Singlet-A      4.3054 eV  287.97 nm  f=0.0085  <S**2>=0.000
      70 -> 73         0.54804
      72 -> 74         0.43905

 The electronic state is 1-A.
 Alpha  occ. eigenvalues --  -19.26209 -19.23369 -14.38789 -14.37608 -14.37346
 Alpha  occ. eigenvalues --  -14.36100 -10.34239 -10.32791 -10.31255 -10.29556
 Alpha  occ. eigenvalues --  -10.28891 -10.28821 -10.27871 -10.27684 -10.27547
 Alpha  occ. eigenvalues --  -10.26693 -10.26531 -10.25785 -10.25172 -10.24366
 Alpha  occ. eigenvalues --  -10.22950  -1.14925  -1.12191  -0.95318  -0.94818
 Alpha  occ. eigenvalues --   -0.94495  -0.92645  -0.92042  -0.88115  -0.84007
 Alpha  occ. eigenvalues --   -0.82952  -0.79922  -0.77768  -0.73901  -0.71014
 Alpha  occ. eigenvalues --   -0.68663  -0.64898  -0.62450  -0.60405  -0.58588
 Alpha  occ. eigenvalues --   -0.57746  -0.55839  -0.55806  -0.53295  -0.51288
 Alpha  occ. eigenvalues --   -0.51005  -0.49797  -0.47600  -0.47340  -0.45705
 Alpha  occ. eigenvalues --   -0.45307  -0.44313  -0.43303  -0.42930  -0.41131
 Alpha  occ. eigenvalues --   -0.40804  -0.40293  -0.39849  -0.39459  -0.39406
 Alpha  occ. eigenvalues --   -0.39187  -0.38423  -0.38180  -0.37395  -0.36760
 Alpha  occ. eigenvalues --   -0.36494  -0.36308  -0.35414  -0.34328  -0.33640
 Alpha  occ. eigenvalues --   -0.28037  -0.25133
 Alpha virt. eigenvalues --   -0.15360  -0.06042  -0.04608  -0.03387  -0.02793
 Alpha virt. eigenvalues --   -0.02448  -0.01366  -0.01151  -0.00715   0.00098
 Alpha virt. eigenvalues --    0.00378   0.01284   0.01704   0.01722   0.02093

 Mulliken charges:
               1
     1  C   -0.122953
     2  O   -0.338408
     3  C   -0.289703
     4  C   -0.886013
     5  C    0.318646
     6  C    1.638015
     7  C   -0.518914
     8  C   -0.458941
     9  N   -0.484822
    10  C    0.192315
    11  O   -0.356579
    12  C    0.440344
    13  C   -0.008360
    14  N   -0.482520
    15  C   -0.329736
    16  C    0.047487
    17  C    1.555672
    18  C   -0.101523
    19  N   -0.511425
    20  C   -0.550995
    21  N   -0.477069
    22  H    0.157417
    23  H    0.157426
    24  H    0.171910
    25  H    0.150903
    26  H    0.189434
    27  H    0.170159
    28  H    0.189438
    29  H    0.194463
    30  H    0.194446
    31  H    0.149884
 Sum of Mulliken charges =  -0.00000

 Dipole moment (field-independent basis, Debye):
    X=             -2.3827    Y=              2.1776    Z=             -0.0000  Tot=              3.2279
 Quadrupole moment (field-independent basis, Debye-Ang):
   XX=           -161.3352   YY=           -147.5925   ZZ=           -119.8417
   XY=             13.5228   XZ=             -0.0017   YZ=             -0.0075

 Normal termination of Gaussian 16 at Tue Jul 29 22:40:33 2025.
