 Gaussian 16, Revision C.02,
 Gaussian 16:  ES64L-G16RevC.02  7-Dec-2021

 ----------------------------------------------------------
 # td=(50-50,nstates=3) b3lyp/6-31+g(d,p) geom=connectivity
 ----------------------------------------------------------

 -------------------
 Title Card Required
 -------------------
 Symbolic Z-matrix:
 Charge =  0 Multiplicity = 1

                         Standard orientation:
 ---------------------------------------------------------------------
 Center     Atomic      Atomic             Coordinates (Angstroms)
 Number     Number       Type             X           Y           Z
 ---------------------------------------------------------------------
      1         17           0       -3.430884   -1.492429    0.366375
      2          6           0       -3.326041    0.256288   -0.024935
      3          6           0       -1.888233    0.659759   -0.128919
      4          7           0       -0.897476   -0.178850    0.048656
      5          6           0        0.184715    0.632694   -0.143059
      6          6           0        1.439951    0.180856   -0.054308
      7          6           0        2.255410    0.589924    1.000766
      8          6           0        3.564995    0.118660    1.093235
      9          6           0        4.058977   -0.761707    0.130720
     10          6           0        3.243510   -1.170848   -0.924287
     11          6           0        1.933934   -0.699511   -1.016823
     12          7           0       -0.095753    1.908507   -0.425257
     13          8           0       -1.494921    1.928184   -0.415928
     14          1           0       -3.836314    0.450094   -0.994944
     15          1           0       -3.819560    0.846529    0.779291
     16          1           0        1.865808    1.284166    1.759893
     17          1           0        4.208201    0.441318    1.925196
     18          1           0        5.091730   -1.133302    0.203684
     19          1           0        3.633102   -1.865164   -1.683346
     20          1           0        1.290737   -1.022096   -1.848851
 ---------------------------------------------------------------------

 SCF Done:  E(RB3LYP) =  -992.060038191     A.U. after   15 cycles

 Excitation energies and oscillator strengths:

 Excited State   1:      Triplet-A      3.6228 eV  342.23 nm  f=0.0000  <S**2>=2.000
      48 -> 51         0.19701
      48 -> 52         0.11135
      49 -> 52         0.19177
      49 -> 53        -0.24241
      49 -> 54         0.16076
      50 -> 51         0.45349
      50 -> 52        -0.28054
      50 -> 54         0.12071
 This state for optimization and/or second-order correction.
 Total Energy, E(TD-HF/TD-DFT) =  -991.926902980
 Copying the excited state density for this state as the 1-particle RhoCI density.

 Excited State   2:      Triplet-A      3.9189 eV  316.37 nm  f=0.0000  <S**2>=2.000
      46 -> 51         0.10778
      48 -> 51         0.50871
      49 -> 52        -0.15233
      49 -> 53         0.19829
      49 -> 54        -0.13236
      50 -> 51         0.14960
      50 -> 52         0.23615
      50 -> 53         0.12591
      50 -> 54        -0.12901

 Excited State   3:      Triplet-A      4.5103 eV  274.89 nm  f=0.0000  <S**2>=2.000
      49 -> 51         0.47846
      49 -> 52        -0.39102
      49 -> 54         0.12940
      50 -> 52         0.14474
      50 -> 53        -0.20685
      50 -> 54         0.13603

 Excited State   4:      Singlet-A      5.0337 eV  246.31 nm  f=0.0307  <S**2>=0.000
      49 -> 51         0.46884
      49 -> 52        -0.12191
      50 -> 51        -0.43336
      50 -> 52        -0.21582
      50 -> 53         0.12146

 Excited State   5:      Singlet-A      5.1024 eV  242.99 nm  f=0.0161  <S**2>=0.000
      49 -> 51         0.41636
      50 -> 51         0.52123
      50 -> 53         0.16319
      50 -> 54        -0.10933

 Excited State   6:      Singlet-A      5.4877 eV  225.93 nm  f=0.0154  <S**2>=0.000
      45 -> 51        -0.11044
      47 -> 51         0.41247
      49 -> 51        -0.21541
      49 -> 52        -0.33582
      49 -> 53        -0.14475
      49 -> 54         0.13468
      50 -> 52        -0.16760
      50 -> 53         0.23676
      50 -> 54        -0.13388

 The electronic state is 1-A.
 Alpha  occ. eigenvalues -- -101.56030 -19.27264 -14.40734 -14.36197 -10.32121
 Alpha  occ. eigenvalues --  -10.29283 -10.26506 -10.21206 -10.21198 -10.21032
 Alpha  occ. eigenvalues --  -10.20939 -10.20901 -10.20839  -9.47544  -7.24030
 Alpha  occ. eigenvalues --   -7.22926  -7.22911  -1.18250  -0.96944  -0.91185
 Alpha  occ. eigenvalues --   -0.87589  -0.85822  -0.78576  -0.76311  -0.73491
 Alpha  occ. eigenvalues --   -0.67640  -0.63387  -0.62054  -0.59848  -0.55296
 Alpha  occ. eigenvalues --   -0.52449  -0.50919  -0.48219  -0.47207  -0.46407
 Alpha  occ. eigenvalues --   -0.45397  -0.44597  -0.43518  -0.43398  -0.38311
 Alpha  occ. eigenvalues --   -0.36798  -0.36673  -0.35957  -0.34510  -0.33545
 Alpha  occ. eigenvalues --   -0.31997  -0.30186  -0.29839  -0.26928  -0.26544
 Alpha virt. eigenvalues --   -0.05469  -0.03101  -0.02535  -0.02058  -0.00211
 Alpha virt. eigenvalues --    0.00647   0.01786   0.02645   0.02755   0.03619
 Alpha virt. eigenvalues --    0.04246   0.04754   0.05435   0.05983   0.06363

 Mulliken charges:
               1
     1  Cl   0.006504
     2  C   -0.364081
     3  C    0.120009
     4  N   -0.093066
     5  C    0.059417
     6  C    0.048791
     7  C   -0.254121
     8  C   -0.119363
     9  C   -0.063987
    10  C   -0.115149
    11  C    0.000691
    12  N   -0.354417
    13  O    0.033021
    14  H    0.215269
    15  H    0.215230
    16  H    0.136164
    17  H    0.131817
    18  H    0.129498
    19  H    0.131788
    20  H    0.135986
 Sum of Mulliken charges =  -0.00000

 Dipole moment (field-independent basis, Debye):
    X=             -0.0849    Y=             -0.0266    Z=              0.0069  Tot=              0.0892
 Quadrupole moment (field-independent basis, Debye-Ang):
   XX=            -67.4905   YY=            -89.9633   ZZ=            -78.3449
   XY=             -8.6284   XZ=              2.8313   YZ=              5.8667

 Normal termination of Gaussian 16 at Wed Sep 17 14:48:05 2025.
