 Gaussian 16, Revision C.02,
 Gaussian 16:  ES64L-G16RevC.02  7-Dec-2021

 ----------------------------------------------------------
 # td=(50-50,nstates=3) b3lyp/6-31+g(d,p) geom=connectivity
 ----------------------------------------------------------

 -------------------
 Title Card Required
 -------------------
 Symbolic Z-matrix:
 Charge =  0 Multiplicity = 1

                         Standard orientation:
 ---------------------------------------------------------------------
 Center     Atomic      Atomic             Coordinates (Angstroms)
 Number     Number       Type             X           Y           Z
 ---------------------------------------------------------------------
      1         17           0        4.186965   -1.241950    0.000201
      2          6           0        3.593733    0.448985    0.000071
      3          6           0        2.099765    0.546456   -0.000059
      4          7           0        1.187335   -0.374364    0.000235
      5          6           0        0.013826    0.365072   -0.000043
      6          6           0       -1.348180   -0.270926    0.000132
      7          6           0       -2.150907    0.088229   -1.272530
      8          6           0       -3.530945   -0.586238   -1.268864
      9          6           0       -4.327112   -0.244118   -0.000014
     10          6           0       -3.531062   -0.585308    1.269159
     11          6           0       -2.151022    0.089160    1.272459
     12          7           0        0.197399    1.662664   -0.000558
     13          8           0        1.604726    1.796341   -0.000487
     14          1           0        3.995354    0.946436    0.885787
     15          1           0        3.995498    0.946364   -0.885618
     16          1           0       -1.166818   -1.353065    0.000537
     17          1           0       -2.269015    1.178713   -1.318878
     18          1           0       -1.583866   -0.207170   -2.163550
     19          1           0       -4.090895   -0.286220   -2.162957
     20          1           0       -3.401738   -1.676561   -1.333543
     21          1           0       -4.563761    0.829801   -0.000419
     22          1           0       -5.286529   -0.775730    0.000137
     23          1           0       -4.091093   -0.284633    2.162980
     24          1           0       -3.401862   -1.675583    1.334651
     25          1           0       -2.269134    1.179678    1.317999
     26          1           0       -1.584063   -0.205588    2.163746
 ---------------------------------------------------------------------

 SCF Done:  E(RB3LYP) =  -995.718888248     A.U. after   14 cycles

 Excitation energies and oscillator strengths:

 Excited State   1:      Triplet-A      4.1713 eV  297.23 nm  f=0.0000  <S**2>=2.000
      49 -> 54         0.20675
      51 -> 54        -0.19562
      53 -> 54         0.62307
      53 -> 60        -0.11690
 This state for optimization and/or second-order correction.
 Total Energy, E(TD-HF/TD-DFT) =  -995.565596090
 Copying the excited state density for this state as the 1-particle RhoCI density.

 Excited State   2:      Triplet-A      5.2987 eV  233.99 nm  f=0.0000  <S**2>=2.000
      47 -> 54         0.17601
      48 -> 54        -0.12435
      52 -> 54         0.64654

 Excited State   3:      Triplet-A      5.6558 eV  219.22 nm  f=0.0000  <S**2>=2.000
      44 -> 54        -0.11851
      46 -> 54         0.51964
      46 -> 60         0.10088
      49 -> 54        -0.17732
      51 -> 54         0.27820
      51 -> 60         0.10288
      53 -> 54         0.11378
      53 -> 60        -0.19703

 Excited State   4:      Singlet-A      5.7585 eV  215.31 nm  f=0.0032  <S**2>=0.000
      47 -> 54         0.16285
      52 -> 54         0.67784

 Excited State   5:      Singlet-A      6.2600 eV  198.06 nm  f=0.0285  <S**2>=0.000
      49 -> 54        -0.13801
      51 -> 54         0.11093
      53 -> 54         0.67129

 Excited State   6:      Singlet-A      6.5531 eV  189.20 nm  f=0.0002  <S**2>=0.000
      51 -> 55        -0.21171
      53 -> 55         0.65575

 The electronic state is 1-A.
 Alpha  occ. eigenvalues -- -101.56032 -19.26504 -14.40264 -14.36004 -10.31781
 Alpha  occ. eigenvalues --  -10.28767 -10.26928 -10.21195 -10.19261 -10.19260
 Alpha  occ. eigenvalues --  -10.18888 -10.18887 -10.18720  -9.47554  -7.24025
 Alpha  occ. eigenvalues --   -7.22937  -7.22935  -1.17932  -0.95685  -0.90758
 Alpha  occ. eigenvalues --   -0.86741  -0.83824  -0.76348  -0.74970  -0.73417
 Alpha  occ. eigenvalues --   -0.66002  -0.62650  -0.61865  -0.59635  -0.55884
 Alpha  occ. eigenvalues --   -0.52567  -0.52348  -0.47932  -0.47189  -0.46783
 Alpha  occ. eigenvalues --   -0.45000  -0.44502  -0.44322  -0.43013  -0.39608
 Alpha  occ. eigenvalues --   -0.39229  -0.38680  -0.36359  -0.35195  -0.34696
 Alpha  occ. eigenvalues --   -0.34128  -0.32717  -0.32571  -0.32112  -0.31515
 Alpha  occ. eigenvalues --   -0.31303  -0.30565  -0.29068
 Alpha virt. eigenvalues --   -0.04348  -0.01739  -0.00181   0.00482   0.01837
 Alpha virt. eigenvalues --    0.02092   0.02563   0.02573   0.03844   0.04327
 Alpha virt. eigenvalues --    0.05079   0.05502   0.05544   0.06448   0.06783

 Mulliken charges:
               1
     1  Cl   0.006732
     2  C   -1.042727
     3  C   -0.624331
     4  N   -0.154674
     5  C   -0.449781
     6  C    2.004929
     7  C   -0.358506
     8  C   -0.167385
     9  C   -0.320453
    10  C   -0.167373
    11  C   -0.358477
    12  N   -0.512878
    13  O    0.126711
    14  H    0.219054
    15  H    0.219049
    16  H    0.147988
    17  H    0.159727
    18  H    0.142252
    19  H    0.137862
    20  H    0.139527
    21  H    0.139625
    22  H    0.133764
    23  H    0.137861
    24  H    0.139527
    25  H    0.159727
    26  H    0.142249
 Sum of Mulliken charges =  -0.00000

 Dipole moment (field-independent basis, Debye):
    X=             -0.4279    Y=              0.3688    Z=              0.0004  Tot=              0.5649
 Quadrupole moment (field-independent basis, Debye-Ang):
   XX=            -77.8754   YY=            -92.4324   ZZ=            -83.9993
   XY=              8.0181   XZ=             -0.0006   YZ=              0.0031

 Normal termination of Gaussian 16 at Wed Sep 17 14:45:19 2025.
