 Gaussian 16, Revision C.02,
 Gaussian 16:  ES64L-G16RevC.02  7-Dec-2021

 ----------------------------------------------------------
 # td=(50-50,nstates=3) b3lyp/6-31+g(d,p) geom=connectivity
 ----------------------------------------------------------

 -------------------
 Title Card Required
 -------------------
 Symbolic Z-matrix:
 Charge =  0 Multiplicity = 1

                         Standard orientation:
 ---------------------------------------------------------------------
 Center     Atomic      Atomic             Coordinates (Angstroms)
 Number     Number       Type             X           Y           Z
 ---------------------------------------------------------------------
      1          6           0       -3.260148   -2.115336    0.311249
      2          7           0       -1.958109   -1.587174   -0.080350
      3          6           0       -0.835447   -2.522845   -0.061681
      4          6           0        0.355302   -1.951470   -0.814424
      5          7           0        0.734535   -0.661192   -0.215717
      6          6           0        2.136364   -0.215211   -0.229516
      7          6           0        2.601908    0.477123    1.076826
      8          6           0        4.144087    0.340172    1.003459
      9          6           0        4.378244   -0.743661   -0.094608
     10          7           0        3.060902   -1.347300   -0.393626
     11          6           0       -0.294308    0.247956   -0.176931
     12          6           0       -0.321080    1.625316   -0.216019
     13          6           0        0.724014    2.539676   -0.466962
     14          7           0        1.539176    3.347857   -0.687462
     15          6           0       -1.736572    2.116493   -0.026381
     16          6           0       -2.532843    0.838205    0.078527
     17          6           0       -3.932297    0.873273    0.255995
     18          7           0       -5.088482    0.970107    0.400109
     19          6           0       -1.691038   -0.248751   -0.043280
     20          1           0       -4.064249   -1.549810   -0.159054
     21          1           0       -3.328857   -3.152969   -0.023588
     22          1           0       -3.404461   -2.085496    1.400569
     23          1           0       -1.158935   -3.448596   -0.549317
     24          1           0       -0.542724   -2.769564    0.971850
     25          1           0        0.106724   -1.829437   -1.879182
     26          1           0        1.195615   -2.638731   -0.756734
     27          1           0        2.307202    0.455992   -1.084207
     28          1           0        2.285198    1.514936    1.170970
     29          1           0        2.188705   -0.086356    1.922239
     30          1           0        4.561667    0.039255    1.969076
     31          1           0        4.614941    1.288295    0.727880
     32          1           0        4.763757   -0.289068   -1.013164
     33          1           0        5.078771   -1.527745    0.202916
     34          1           0        2.863462   -2.012668    0.357127
     35          1           0       -2.063804    2.735643   -0.872247
     36          1           0       -1.836272    2.734590    0.876666
 ---------------------------------------------------------------------

 SCF Done:  E(RB3LYP) =  -817.467579985     A.U. after   16 cycles

 Excitation energies and oscillator strengths:

 Excited State   1:      Triplet-A      2.1944 eV  565.00 nm  f=0.0000  <S**2>=2.000
      68 -> 69         0.69414
      68 <- 69         0.10259
 This state for optimization and/or second-order correction.
 Total Energy, E(TD-HF/TD-DFT) =  -817.386936650
 Copying the excited state density for this state as the 1-particle RhoCI density.

 Excited State   2:      Triplet-A      2.8230 eV  439.19 nm  f=0.0000  <S**2>=2.000
      67 -> 69         0.67986

 Excited State   3:      Singlet-A      3.6882 eV  336.17 nm  f=0.1312  <S**2>=0.000
      68 -> 69         0.70175

 Excited State   4:      Singlet-A      4.0522 eV  305.97 nm  f=0.1656  <S**2>=0.000
      67 -> 69         0.68156
      68 -> 70        -0.11131

 Excited State   5:      Triplet-A      4.5060 eV  275.15 nm  f=0.0000  <S**2>=2.000
      65 -> 69         0.11439
      66 -> 69         0.41575
      67 -> 69        -0.12518
      68 -> 70         0.46611
      68 -> 71        -0.12266
      68 -> 73        -0.12342
      68 -> 74         0.12831

 Excited State   6:      Singlet-A      4.5837 eV  270.49 nm  f=0.0065  <S**2>=0.000
      66 -> 69         0.70145

 The electronic state is 1-A.
 Alpha  occ. eigenvalues --  -14.39888 -14.39626 -14.35264 -14.33947 -14.33454
 Alpha  occ. eigenvalues --  -10.27597 -10.27493 -10.27291 -10.25908 -10.25494
 Alpha  occ. eigenvalues --  -10.24066 -10.23587 -10.23341 -10.23156 -10.22871
 Alpha  occ. eigenvalues --  -10.22810 -10.22348 -10.19959 -10.19925  -1.01556
 Alpha  occ. eigenvalues --   -0.97897  -0.93547  -0.91117  -0.90407  -0.88059
 Alpha  occ. eigenvalues --   -0.79868  -0.77854  -0.77219  -0.76500  -0.73156
 Alpha  occ. eigenvalues --   -0.68437  -0.67933  -0.65536  -0.63214  -0.60364
 Alpha  occ. eigenvalues --   -0.57910  -0.56853  -0.54158  -0.52662  -0.51622
 Alpha  occ. eigenvalues --   -0.49482  -0.48303  -0.47235  -0.46845  -0.46265
 Alpha  occ. eigenvalues --   -0.45447  -0.44712  -0.43856  -0.43181  -0.42192
 Alpha  occ. eigenvalues --   -0.41639  -0.41340  -0.40012  -0.38978  -0.37374
 Alpha  occ. eigenvalues --   -0.37053  -0.36763  -0.36544  -0.36119  -0.35897
 Alpha  occ. eigenvalues --   -0.34608  -0.34302  -0.33253  -0.32242  -0.30734
 Alpha  occ. eigenvalues --   -0.26402  -0.23620  -0.21916
 Alpha virt. eigenvalues --   -0.07304  -0.02383  -0.00712   0.00133   0.00357
 Alpha virt. eigenvalues --    0.00664   0.01026   0.01626   0.02368   0.02408
 Alpha virt. eigenvalues --    0.02902   0.03105   0.03366   0.03722   0.04241

 Mulliken charges:
               1
     1  C   -0.220112
     2  N   -0.130639
     3  C   -0.203802
     4  C   -0.068964
     5  N   -0.074761
     6  C   -0.425802
     7  C    0.075236
     8  C   -0.361167
     9  C   -0.048798
    10  N   -0.270939
    11  C   -1.052323
    12  C    1.797106
    13  C   -0.014549
    14  N   -0.564168
    15  C   -1.115921
    16  C    0.582021
    17  C    0.379480
    18  N   -0.621313
    19  C   -0.507432
    20  H    0.178959
    21  H    0.140177
    22  H    0.165566
    23  H    0.144604
    24  H    0.153429
    25  H    0.160569
    26  H    0.162021
    27  H    0.161053
    28  H    0.168565
    29  H    0.144246
    30  H    0.148061
    31  H    0.162144
    32  H    0.153135
    33  H    0.139152
    34  H    0.293728
    35  H    0.186576
    36  H    0.184860
 Sum of Mulliken charges =  -0.00000

 Dipole moment (field-independent basis, Debye):
    X=              3.4971    Y=             -6.8500    Z=              1.2371  Tot=              7.7899
 Quadrupole moment (field-independent basis, Debye-Ang):
   XX=           -138.8125   YY=           -117.3234   ZZ=           -115.0682
   XY=              1.6887   XZ=              8.0558   YZ=              0.7294

 Normal termination of Gaussian 16 at Tue Jul 29 22:41:23 2025.
