 Gaussian 16, Revision C.02,
 Gaussian 16:  ES64L-G16RevC.02  7-Dec-2021

 ----------------------------------------------------------
 # td=(50-50,nstates=3) b3lyp/6-31+g(d,p) geom=connectivity
 ----------------------------------------------------------

 -------------------
 Title Card Required
 -------------------
 Symbolic Z-matrix:
 Charge =  0 Multiplicity = 1

                         Standard orientation:
 ---------------------------------------------------------------------
 Center     Atomic      Atomic             Coordinates (Angstroms)
 Number     Number       Type             X           Y           Z
 ---------------------------------------------------------------------
      1          6           0       -1.513378   -2.292186    1.920697
      2          6           0       -1.263565   -2.700115    0.472461
      3         16           0       -1.307796   -1.313471   -0.701007
      4          8           0       -1.021473   -1.835178   -2.043292
      5          8           0       -2.483377   -0.470787   -0.433917
      6          6           0        0.107851   -0.312318   -0.236467
      7          6           0        0.235440    1.015323    0.065092
      8          6           0       -0.705286    2.185252    0.279518
      9          6           0       -1.425690    2.562010   -0.952859
     10          7           0       -1.938960    2.908545   -1.932752
     11          6           0       -1.619945    1.946771    1.414705
     12          7           0       -2.278219    1.784020    2.354975
     13          6           0        1.746432    0.880457    0.136812
     14          7           0        2.930186    1.342568    0.341372
     15         16           0        3.949661   -0.052505    0.122898
     16          7           0        2.692618   -1.212610   -0.232231
     17          6           0        1.618405   -0.509814   -0.179673
     18          1           0       -1.537344   -3.192106    2.542524
     19          1           0       -0.720117   -1.644664    2.306130
     20          1           0       -2.467375   -1.771021    2.025777
     21          1           0       -2.045606   -3.361219    0.082728
     22          1           0       -0.296502   -3.187205    0.314203
     23          1           0       -0.085061    3.049603    0.554789
 ---------------------------------------------------------------------

 SCF Done:  E(RB3LYP) =  -1512.18213296     A.U. after   17 cycles

 Excitation energies and oscillator strengths:

 Excited State   1:      Triplet-A      1.7411 eV  712.10 nm  f=0.0000  <S**2>=2.000
      56 -> 69        -0.12262
      58 -> 69         0.11498
      68 -> 69         0.68399
      68 <- 69         0.11576
 This state for optimization and/or second-order correction.
 Total Energy, E(TD-HF/TD-DFT) =  -1512.11814872
 Copying the excited state density for this state as the 1-particle RhoCI density.

 Excited State   2:      Singlet-A      2.7480 eV  451.18 nm  f=0.0126  <S**2>=0.000
      68 -> 69         0.70485

 Excited State   3:      Triplet-A      3.2546 eV  380.95 nm  f=0.0000  <S**2>=2.000
      61 -> 69         0.13847
      68 -> 70         0.68346

 Excited State   4:      Triplet-A      3.6630 eV  338.48 nm  f=0.0000  <S**2>=2.000
      65 -> 69        -0.12769
      67 -> 69         0.68357

 Excited State   5:      Singlet-A      3.8724 eV  320.17 nm  f=0.0005  <S**2>=0.000
      65 -> 69        -0.11134
      67 -> 69         0.69604

 Excited State   6:      Singlet-A      4.4472 eV  278.79 nm  f=0.0060  <S**2>=0.000
      65 -> 69        -0.42124
      66 -> 69         0.54586

 The electronic state is 1-A.
 Alpha  occ. eigenvalues --  -89.14208 -88.98633 -19.18559 -19.18493 -14.42410
 Alpha  occ. eigenvalues --  -14.42235 -14.38970 -14.38639 -10.34667 -10.32623
 Alpha  occ. eigenvalues --  -10.31377 -10.30003 -10.29938 -10.28431 -10.28017
 Alpha  occ. eigenvalues --  -10.26675 -10.22670  -8.16949  -8.04047  -6.13417
 Alpha  occ. eigenvalues --   -6.13361  -6.13221  -6.00746  -6.00159  -5.99469
 Alpha  occ. eigenvalues --   -1.14202  -1.05553  -1.03921  -0.96932  -0.94864
 Alpha  occ. eigenvalues --   -0.94454  -0.94060  -0.87253  -0.84187  -0.76623
 Alpha  occ. eigenvalues --   -0.73946  -0.69126  -0.67258  -0.62972  -0.61828
 Alpha  occ. eigenvalues --   -0.58492  -0.56694  -0.54578  -0.52845  -0.51633
 Alpha  occ. eigenvalues --   -0.50244  -0.49497  -0.48980  -0.47829  -0.44774
 Alpha  occ. eigenvalues --   -0.42714  -0.42287  -0.41206  -0.40830  -0.40507
 Alpha  occ. eigenvalues --   -0.39652  -0.38940  -0.38120  -0.37536  -0.37247
 Alpha  occ. eigenvalues --   -0.36919  -0.36741  -0.35551  -0.35268  -0.34399
 Alpha  occ. eigenvalues --   -0.33914  -0.32389  -0.27409
 Alpha virt. eigenvalues --   -0.14269  -0.08649  -0.06148  -0.04641  -0.03957
 Alpha virt. eigenvalues --   -0.02475  -0.01255  -0.00896  -0.00696   0.00275
 Alpha virt. eigenvalues --    0.00523   0.01228   0.01314   0.02363   0.02728

 Mulliken charges:
               1
     1  C   -0.471019
     2  C   -0.274911
     3  S    1.388462
     4  O   -0.433382
     5  O   -0.433581
     6  C   -1.179229
     7  C    0.063063
     8  C    0.867101
     9  C    0.004762
    10  N   -0.347204
    11  C   -0.033106
    12  N   -0.341362
    13  C    0.113194
    14  N   -0.460393
    15  S    0.683315
    16  N   -0.434725
    17  C    0.089689
    18  H    0.168366
    19  H    0.167118
    20  H    0.201961
    21  H    0.214595
    22  H    0.207777
    23  H    0.239509
 Sum of Mulliken charges =  -0.00000

 Dipole moment (field-independent basis, Debye):
    X=              3.0431    Y=             -1.9747    Z=              3.6869  Tot=              5.1723
 Quadrupole moment (field-independent basis, Debye-Ang):
   XX=           -126.6215   YY=           -105.4568   ZZ=           -127.7737
   XY=             10.6154   XZ=             -3.4834   YZ=             -4.7441

 Normal termination of Gaussian 16 at Wed Aug 27 20:51:34 2025.
