 Gaussian 16, Revision C.02,
 Gaussian 16:  ES64L-G16RevC.02  7-Dec-2021

 ----------------------------------------------------------
 # td=(50-50,nstates=3) b3lyp/6-31+g(d,p) geom=connectivity
 ----------------------------------------------------------

 -------------------
 Title Card Required
 -------------------
 Symbolic Z-matrix:
 Charge =  0 Multiplicity = 1

                         Standard orientation:
 ---------------------------------------------------------------------
 Center     Atomic      Atomic             Coordinates (Angstroms)
 Number     Number       Type             X           Y           Z
 ---------------------------------------------------------------------
      1          6           0       10.794177    2.041310   -0.446436
      2          6           0        9.915178    1.345244    0.599189
      3          6           0        8.514037    1.001776    0.077628
      4          6           0        7.628115    0.301301    1.128418
      5          6           0        6.244522   -0.038216    0.616556
      6          6           0        5.986268   -1.260398   -0.020810
      7          6           0        4.720295   -1.556621   -0.530108
      8          6           0        3.661974   -0.643121   -0.420513
      9          6           0        2.278781   -0.979488   -0.935567
     10          6           0        1.414189   -1.718726    0.106077
     11          6           0       -0.004121   -2.040805   -0.378813
     12          7           0       -0.779468   -0.819719   -0.610521
     13          6           0       -2.100344   -0.989913   -1.217940
     14          6           0       -3.133571   -1.601710   -0.307676
     15          6           0       -4.341912   -1.083217    0.005299
     16          6           0       -5.316296   -1.657546    0.912017
     17          6           0       -6.457541   -0.939084    1.051354
     18          6           0       -6.480768    0.271651    0.260643
     19          6           0       -7.515822    1.187392    0.211308
     20          6           0       -7.440387    2.357711   -0.598855
     21          7           0       -7.354215    3.306988   -1.269654
     22          6           0       -8.698793    0.978853    0.981367
     23          7           0       -9.655755    0.789192    1.619023
     24         16           0       -4.995486    0.447836   -0.664715
     25          6           0        3.920241    0.579408    0.215848
     26          6           0        5.186180    0.875182    0.725818
     27          1           0       11.786391    2.273079   -0.044275
     28          1           0       10.932905    1.409053   -1.331418
     29          1           0       10.342086    2.982674   -0.780498
     30          1           0        9.823795    1.987566    1.486231
     31          1           0       10.410511    0.425060    0.939360
     32          1           0        8.599016    0.356813   -0.807804
     33          1           0        8.012588    1.918890   -0.260863
     34          1           0        7.543394    0.948883    2.010823
     35          1           0        8.130328   -0.615956    1.462581
     36          1           0        6.786617   -1.990419   -0.121102
     37          1           0        4.553651   -2.512438   -1.022695
     38          1           0        1.759420   -0.065950   -1.242271
     39          1           0        2.362868   -1.608673   -1.831556
     40          1           0        1.905221   -2.658078    0.389400
     41          1           0        1.357102   -1.119548    1.025911
     42          1           0       -0.477212   -2.726535    0.347132
     43          1           0        0.047467   -2.581000   -1.333973
     44          1           0       -0.849963   -0.271401    0.243755
     45          1           0       -2.442609   -0.013692   -1.579885
     46          1           0       -1.975417   -1.623574   -2.106779
     47          1           0       -2.869721   -2.543008    0.172291
     48          1           0       -5.115221   -2.591422    1.426093
     49          1           0       -7.291529   -1.210695    1.687482
     50          1           0        3.121337    1.311674    0.311641
     51          1           0        5.354390    1.832174    1.215097
 ---------------------------------------------------------------------

 SCF Done:  E(RB3LYP) =  -1415.85338857     A.U. after   16 cycles

 Excitation energies and oscillator strengths:

 Excited State   1:      Triplet-A      1.5227 eV  814.26 nm  f=0.0000  <S**2>=2.000
      94 -> 98        -0.22327
      96 -> 98         0.50293
      97 -> 98        -0.44580
      96 <- 98         0.10958
 This state for optimization and/or second-order correction.
 Total Energy, E(TD-HF/TD-DFT) =  -1415.79743180
 Copying the excited state density for this state as the 1-particle RhoCI density.

 Excited State   2:      Triplet-A      2.6918 eV  460.61 nm  f=0.0000  <S**2>=2.000
      94 -> 98         0.48256
      96 -> 98        -0.19521
      97 -> 98        -0.46643

 Excited State   3:      Singlet-A      2.7750 eV  446.79 nm  f=0.1348  <S**2>=0.000
      94 -> 98        -0.23772
      96 -> 98         0.12176
      97 -> 98         0.65292

 Excited State   4:      Triplet-A      2.9755 eV  416.69 nm  f=0.0000  <S**2>=2.000
      94 -> 98         0.44657
      96 -> 98         0.45642
      97 -> 98         0.29022

 Excited State   5:      Singlet-A      3.0166 eV  411.00 nm  f=0.1510  <S**2>=0.000
      94 -> 98         0.37175
      96 -> 98         0.59733

 Excited State   6:      Singlet-A      3.3424 eV  370.94 nm  f=0.0039  <S**2>=0.000
      95 -> 98         0.70507

 The electronic state is 1-A.
 Alpha  occ. eigenvalues --  -88.94711 -14.35944 -14.35836 -14.35594 -10.29625
 Alpha  occ. eigenvalues --  -10.28192 -10.27382 -10.25636 -10.25364 -10.25339
 Alpha  occ. eigenvalues --  -10.25294 -10.24835 -10.24805 -10.23507 -10.20353
 Alpha  occ. eigenvalues --  -10.20257 -10.20166 -10.19613 -10.19596 -10.19568
 Alpha  occ. eigenvalues --  -10.19515 -10.19494 -10.19314 -10.18823 -10.18800
 Alpha  occ. eigenvalues --  -10.18035  -8.00641  -5.97114  -5.96752  -5.96223
 Alpha  occ. eigenvalues --   -0.94308  -0.93749  -0.92085  -0.91968  -0.86584
 Alpha  occ. eigenvalues --   -0.85325  -0.81937  -0.80989  -0.79436  -0.78064
 Alpha  occ. eigenvalues --   -0.76561  -0.74931  -0.73384  -0.71362  -0.68423
 Alpha  occ. eigenvalues --   -0.66150  -0.63797  -0.62476  -0.61356  -0.61049
 Alpha  occ. eigenvalues --   -0.60054  -0.58619  -0.57444  -0.57053  -0.55717
 Alpha  occ. eigenvalues --   -0.51393  -0.50361  -0.49724  -0.48463  -0.48177
 Alpha  occ. eigenvalues --   -0.47056  -0.46283  -0.46143  -0.45067  -0.44693
 Alpha  occ. eigenvalues --   -0.44259  -0.43467  -0.43021  -0.42265  -0.41787
 Alpha  occ. eigenvalues --   -0.41547  -0.41105  -0.40238  -0.39991  -0.39566
 Alpha  occ. eigenvalues --   -0.38577  -0.38140  -0.37962  -0.37722  -0.37376
 Alpha  occ. eigenvalues --   -0.36294  -0.35938  -0.35745  -0.35582  -0.35083
 Alpha  occ. eigenvalues --   -0.34759  -0.34353  -0.33831  -0.33766  -0.32930
 Alpha  occ. eigenvalues --   -0.32705  -0.32527  -0.30534  -0.26008  -0.25720
 Alpha  occ. eigenvalues --   -0.24302  -0.23806
 Alpha virt. eigenvalues --   -0.12414  -0.03670  -0.03333  -0.01998  -0.01676
 Alpha virt. eigenvalues --   -0.01577  -0.00434  -0.00395  -0.00174   0.00071
 Alpha virt. eigenvalues --    0.00462   0.01103   0.01189   0.01386   0.01853

 Mulliken charges:
               1
     1  C   -0.706716
     2  C   -0.118559
     3  C   -0.332956
     4  C   -0.430249
     5  C    0.387228
     6  C   -0.090773
     7  C   -0.263135
     8  C    0.196106
     9  C   -0.273015
    10  C   -0.551360
    11  C   -0.114341
    12  N   -0.327778
    13  C   -0.336742
    14  C    0.257927
    15  C   -0.341539
    16  C    0.055754
    17  C    0.186868
    18  C    0.183253
    19  C    1.177109
    20  C   -0.301922
    21  N   -0.470446
    22  C   -0.432836
    23  N   -0.500917
    24  S   -0.257824
    25  C   -0.070338
    26  C   -0.121979
    27  H    0.144568
    28  H    0.145789
    29  H    0.146124
    30  H    0.136301
    31  H    0.136025
    32  H    0.139814
    33  H    0.140254
    34  H    0.136082
    35  H    0.135822
    36  H    0.112939
    37  H    0.110836
    38  H    0.163886
    39  H    0.132227
    40  H    0.146972
    41  H    0.139927
    42  H    0.115459
    43  H    0.130221
    44  H    0.283275
    45  H    0.148288
    46  H    0.161810
    47  H    0.140785
    48  H    0.151998
    49  H    0.173068
    50  H    0.113111
    51  H    0.113601
 Sum of Mulliken charges =  -0.00000

 Dipole moment (field-independent basis, Debye):
    X=              6.9780    Y=             -6.1824    Z=              1.0290  Tot=              9.3794
 Quadrupole moment (field-independent basis, Debye-Ang):
   XX=           -243.1598   YY=           -168.3261   ZZ=           -171.3814
   XY=             35.8011   XZ=              2.6287   YZ=              5.8052

 Normal termination of Gaussian 16 at Tue Jul 29 22:35:06 2025.
