 Gaussian 16, Revision C.02,
 Gaussian 16:  ES64L-G16RevC.02  7-Dec-2021

 ----------------------------------------------------------
 # td=(50-50,nstates=3) b3lyp/6-31+g(d,p) geom=connectivity
 ----------------------------------------------------------

 -------------------
 Title Card Required
 -------------------
 Symbolic Z-matrix:
 Charge =  0 Multiplicity = 1

                         Standard orientation:
 ---------------------------------------------------------------------
 Center     Atomic      Atomic             Coordinates (Angstroms)
 Number     Number       Type             X           Y           Z
 ---------------------------------------------------------------------
      1          6           0       -2.995941   -0.754101   -0.437144
      2          8           0       -2.079871    0.331239   -0.511689
      3          6           0       -1.416387    0.633915    0.707898
      4          6           0       -0.186795   -0.251028    0.941041
      5          6           0        0.845863   -0.111871   -0.217118
      6          6           0        1.450610    1.232444   -0.249587
      7          7           0        1.888885    2.306615   -0.258139
      8          6           0        1.888855   -1.148180   -0.133856
      9          7           0        2.677013   -1.996102   -0.055656
     10          1           0       -3.459709   -0.840711   -1.421529
     11          1           0       -2.500373   -1.705107   -0.195545
     12          1           0       -3.776226   -0.559083    0.312308
     13          1           0       -1.120095    1.685617    0.639194
     14          1           0       -2.103666    0.532558    1.560522
     15          1           0        0.290263    0.011996    1.890590
     16          1           0       -0.475390   -1.304891    1.000997
     17          1           0        0.305648   -0.250950   -1.163856
 ---------------------------------------------------------------------

 SCF Done:  E(RB3LYP) =  -418.148077141     A.U. after   13 cycles

 Excitation energies and oscillator strengths:

 Excited State   1:      Triplet-A      5.7764 eV  214.64 nm  f=0.0000  <S**2>=2.000
      28 -> 36         0.10899
      28 -> 38         0.14927
      28 -> 39        -0.20271
      28 -> 41        -0.12230
      29 -> 34         0.27003
      29 -> 35         0.19937
      30 -> 34        -0.10958
      30 -> 41        -0.17882
      30 -> 42        -0.13021
      31 -> 34        -0.12218
      31 -> 36         0.19594
      32 -> 34         0.12295
      32 -> 36        -0.20073
      33 -> 34         0.10806
 This state for optimization and/or second-order correction.
 Total Energy, E(TD-HF/TD-DFT) =  -417.935798199
 Copying the excited state density for this state as the 1-particle RhoCI density.

 Excited State   2:      Triplet-A      5.7818 eV  214.44 nm  f=0.0000  <S**2>=2.000
      28 -> 34         0.14266
      28 -> 36        -0.19518
      29 -> 41        -0.15275
      29 -> 42        -0.11160
      30 -> 34         0.35789
      30 -> 35         0.26041
      31 -> 34        -0.14537
      31 -> 39         0.12878
      31 -> 41         0.10688
      32 -> 38         0.10811
      32 -> 39        -0.13986

 Excited State   3:      Triplet-A      6.3445 eV  195.42 nm  f=0.0000  <S**2>=2.000
      29 -> 35        -0.10359
      29 -> 36        -0.10601
      30 -> 39        -0.10682
      31 -> 34        -0.15063
      31 -> 35        -0.10776
      32 -> 34         0.15314
      32 -> 35         0.12297
      33 -> 34         0.57000
      33 -> 35        -0.12906

 Excited State   4:      Singlet-A      6.4662 eV  191.74 nm  f=0.0063  <S**2>=0.000
      33 -> 34         0.67015
      33 -> 35        -0.20346

 Excited State   5:      Singlet-A      6.5961 eV  187.97 nm  f=0.0020  <S**2>=0.000
      33 -> 34         0.20941
      33 -> 35         0.66159

 Excited State   6:      Singlet-A      6.9980 eV  177.17 nm  f=0.0682  <S**2>=0.000
      33 -> 36         0.68329
      33 -> 37         0.13497

 The electronic state is 1-A.
 Alpha  occ. eigenvalues --  -19.18901 -14.37121 -14.37109 -10.30564 -10.27052
 Alpha  occ. eigenvalues --  -10.26417 -10.26383 -10.25677 -10.24557  -1.06591
 Alpha  occ. eigenvalues --   -0.94644  -0.93259  -0.86480  -0.77739  -0.71563
 Alpha  occ. eigenvalues --   -0.64122  -0.60053  -0.55826  -0.51941  -0.51161
 Alpha  occ. eigenvalues --   -0.48567  -0.46092  -0.43409  -0.42967  -0.40133
 Alpha  occ. eigenvalues --   -0.39357  -0.38982  -0.37017  -0.36667  -0.35754
 Alpha  occ. eigenvalues --   -0.35559  -0.34191  -0.29360
 Alpha virt. eigenvalues --   -0.02650  -0.02078  -0.00655   0.00235   0.00588
 Alpha virt. eigenvalues --    0.01089   0.01400   0.01900   0.03417   0.04519
 Alpha virt. eigenvalues --    0.04559   0.05304   0.05545   0.06492   0.07641

 Mulliken charges:
               1
     1  C   -0.219957
     2  O   -0.329120
     3  C   -0.271852
     4  C   -0.173601
     5  C    0.258514
     6  C    0.183956
     7  N   -0.469776
     8  C    0.184072
     9  N   -0.472197
    10  H    0.156694
    11  H    0.127126
    12  H    0.136945
    13  H    0.163097
    14  H    0.134696
    15  H    0.177912
    16  H    0.167522
    17  H    0.245970
 Sum of Mulliken charges =  -0.00000

 Dipole moment (field-independent basis, Debye):
    X=             -5.0652    Y=             -1.4604    Z=              1.3084  Tot=              5.4315
 Quadrupole moment (field-independent basis, Debye-Ang):
   XX=            -62.7600   YY=            -67.0849   ZZ=            -51.5831
   XY=              4.3685   XZ=             -1.3948   YZ=              2.3757

 Normal termination of Gaussian 16 at Wed Jul 30 06:58:08 2025.
