 Gaussian 16, Revision C.02,
 Gaussian 16:  ES64L-G16RevC.02  7-Dec-2021

 ----------------------------------------------------------
 # td=(50-50,nstates=3) b3lyp/6-31+g(d,p) geom=connectivity
 ----------------------------------------------------------

 -------------------
 Title Card Required
 -------------------
 Symbolic Z-matrix:
 Charge =  0 Multiplicity = 1

                         Standard orientation:
 ---------------------------------------------------------------------
 Center     Atomic      Atomic             Coordinates (Angstroms)
 Number     Number       Type             X           Y           Z
 ---------------------------------------------------------------------
      1          6           0       -3.376419   -2.746714   -1.074170
      2          6           0       -4.181427   -1.980657   -0.313438
      3          6           0       -5.557676   -2.363836   -0.116888
      4          7           0       -6.671630   -2.665971    0.024744
      5          6           0       -3.746326   -0.735261    0.344549
      6          6           0       -3.091230    0.348597   -0.115358
      7          6           0       -2.622592    0.609299   -1.525691
      8          6           0       -3.214756    1.911715   -2.104799
      9          6           0       -1.080857    0.552749   -1.670239
     10          7           0       -0.411181    1.643185   -0.971625
     11          6           0        0.876098    1.679591   -0.523053
     12         16           0        1.487476    3.079275    0.198509
     13          7           0        1.595671    0.530462   -0.668653
     14          6           0        2.996197    0.428208   -0.316259
     15          6           0        3.250793    0.108117    1.174889
     16          6           0        4.745008   -0.052740    1.442832
     17          7           0        5.290900   -1.119366    0.575634
     18          6           0        6.424020   -1.720699    0.962284
     19          7           0        7.391025   -2.278904    1.307945
     20          6           0        5.108434   -0.940212   -0.876960
     21          6           0        3.649059   -0.632235   -1.188782
     22          8           0        3.054950   -1.192755   -2.092916
     23          6           0       -2.988788    1.318002    1.037752
     24          6           0       -3.700866    0.593852    2.171024
     25          8           0       -3.895312    0.931709    3.304452
     26          8           0       -4.128205   -0.634294    1.683830
     27          1           0       -2.327289   -2.502906   -1.196276
     28          1           0       -3.751681   -3.635396   -1.569206
     29          1           0       -2.990378   -0.214285   -2.148628
     30          1           0       -2.879157    2.060271   -3.136445
     31          1           0       -4.307389    1.864012   -2.108380
     32          1           0       -2.933321    2.800229   -1.529264
     33          1           0       -0.730730   -0.395702   -1.250927
     34          1           0       -0.830400    0.559938   -2.742775
     35          1           0       -0.847960    2.554369   -0.976156
     36          1           0        1.312252   -0.146808   -1.370306
     37          1           0        3.489958    1.389736   -0.535441
     38          1           0        2.852032    0.932216    1.772568
     39          1           0        2.719251   -0.809745    1.449105
     40          1           0        4.921651   -0.346191    2.479326
     41          1           0        5.277145    0.894689    1.263720
     42          1           0        5.391675   -1.856165   -1.396535
     43          1           0        5.729776   -0.111258   -1.259184
     44          1           0       -1.959000    1.545222    1.338181
     45          1           0       -3.483039    2.279590    0.855070
 ---------------------------------------------------------------------

 SCF Done:  E(RB3LYP) =  -1556.87015329     A.U. after   17 cycles

 Excitation energies and oscillator strengths:

 Excited State   1:      Triplet-A      2.7766 eV  446.54 nm  f=0.0000  <S**2>=2.000
      91 -> 99         0.28167
      93 -> 99         0.10584
      95 -> 99         0.12385
      96 -> 99         0.58224
      96 ->101         0.11489
 This state for optimization and/or second-order correction.
 Total Energy, E(TD-HF/TD-DFT) =  -1556.76811652
 Copying the excited state density for this state as the 1-particle RhoCI density.

 Excited State   2:      Triplet-A      3.3735 eV  367.52 nm  f=0.0000  <S**2>=2.000
      98 -> 99         0.70413

 Excited State   3:      Singlet-A      3.3746 eV  367.41 nm  f=0.0010  <S**2>=0.000
      98 -> 99         0.70631

 Excited State   4:      Triplet-A      3.4905 eV  355.20 nm  f=0.0000  <S**2>=2.000
      92 ->100         0.25758
      95 ->100         0.18275
      98 ->100         0.62364

 Excited State   5:      Singlet-A      3.5037 eV  353.87 nm  f=0.0028  <S**2>=0.000
      97 -> 99         0.70530

 Excited State   6:      Singlet-A      3.6368 eV  340.92 nm  f=0.0247  <S**2>=0.000
      98 ->100         0.69747

 The electronic state is 1-A.
 Alpha  occ. eigenvalues --  -88.84854 -19.23871 -19.20764 -19.17609 -14.42616
 Alpha  occ. eigenvalues --  -14.40797 -14.40556 -14.36841 -14.34863 -10.35196
 Alpha  occ. eigenvalues --  -10.33553 -10.33373 -10.30086 -10.28806 -10.28135
 Alpha  occ. eigenvalues --  -10.28001 -10.27663 -10.27123 -10.27083 -10.25921
 Alpha  occ. eigenvalues --  -10.25845 -10.25645 -10.24718 -10.24478 -10.23365
 Alpha  occ. eigenvalues --  -10.22573  -7.90955  -5.87527  -5.86880  -5.86598
 Alpha  occ. eigenvalues --   -1.14691  -1.10647  -1.06740  -1.02588  -1.01446
 Alpha  occ. eigenvalues --   -0.95739  -0.93548  -0.90973  -0.88392  -0.86014
 Alpha  occ. eigenvalues --   -0.83890  -0.81851  -0.80471  -0.77315  -0.75898
 Alpha  occ. eigenvalues --   -0.73434  -0.71988  -0.69611  -0.67438  -0.65885
 Alpha  occ. eigenvalues --   -0.63460  -0.62856  -0.60800  -0.59738  -0.59481
 Alpha  occ. eigenvalues --   -0.57612  -0.57073  -0.53560  -0.52781  -0.52331
 Alpha  occ. eigenvalues --   -0.52191  -0.51148  -0.50901  -0.50263  -0.49745
 Alpha  occ. eigenvalues --   -0.49013  -0.48348  -0.48079  -0.46931  -0.46329
 Alpha  occ. eigenvalues --   -0.45500  -0.44102  -0.43820  -0.43239  -0.43075
 Alpha  occ. eigenvalues --   -0.42196  -0.41701  -0.41560  -0.41046  -0.40282
 Alpha  occ. eigenvalues --   -0.39858  -0.39647  -0.38750  -0.38733  -0.38278
 Alpha  occ. eigenvalues --   -0.38109  -0.37781  -0.37648  -0.35990  -0.34745
 Alpha  occ. eigenvalues --   -0.32128  -0.31391  -0.30683  -0.29705  -0.27268
 Alpha  occ. eigenvalues --   -0.27093  -0.24329  -0.23724
 Alpha virt. eigenvalues --   -0.09850  -0.08075  -0.04634  -0.03950  -0.03126
 Alpha virt. eigenvalues --   -0.01952  -0.01632  -0.01325  -0.00801  -0.00383
 Alpha virt. eigenvalues --    0.00199   0.00611   0.01017   0.01261   0.01378

 Mulliken charges:
               1
     1  C   -0.309444
     2  C    0.393426
     3  C    0.058229
     4  N   -0.489544
     5  C    0.196887
     6  C   -0.070027
     7  C   -0.001368
     8  C   -0.587781
     9  C   -0.328835
    10  N   -0.194106
    11  C   -0.076781
    12  S   -0.130504
    13  N   -0.125769
    14  C   -0.912905
    15  C    0.226877
    16  C   -0.326236
    17  N   -0.295642
    18  C    0.516602
    19  N   -0.438771
    20  C   -0.073552
    21  C    0.200307
    22  O   -0.426209
    23  C   -0.121330
    24  C    0.450735
    25  O   -0.454298
    26  O   -0.262112
    27  H    0.152560
    28  H    0.172831
    29  H    0.143639
    30  H    0.157792
    31  H    0.170108
    32  H    0.143713
    33  H    0.135052
    34  H    0.162018
    35  H    0.324797
    36  H    0.316059
    37  H    0.200599
    38  H    0.191665
    39  H    0.166056
    40  H    0.174619
    41  H    0.169173
    42  H    0.194851
    43  H    0.181329
    44  H    0.223847
    45  H    0.201443
 Sum of Mulliken charges =  -0.00000

 Dipole moment (field-independent basis, Debye):
    X=              0.6699    Y=              1.5916    Z=             -6.6920  Tot=              6.9112
 Quadrupole moment (field-independent basis, Debye-Ang):
   XX=           -235.8979   YY=           -179.5750   ZZ=           -172.1854
   XY=              2.1579   XZ=             13.8472   YZ=              1.3512

 Normal termination of Gaussian 16 at Wed Jul 30 06:48:17 2025.
