 Gaussian 16, Revision C.02,
 Gaussian 16:  ES64L-G16RevC.02  7-Dec-2021

 ----------------------------------------------------------
 # td=(50-50,nstates=3) b3lyp/6-31+g(d,p) geom=connectivity
 ----------------------------------------------------------

 -------------------
 Title Card Required
 -------------------
 Symbolic Z-matrix:
 Charge =  0 Multiplicity = 1

                         Standard orientation:
 ---------------------------------------------------------------------
 Center     Atomic      Atomic             Coordinates (Angstroms)
 Number     Number       Type             X           Y           Z
 ---------------------------------------------------------------------
      1          6           0        2.292371    1.273099   -0.795408
      2          6           0        2.219220   -0.142960   -0.219075
      3          6           0        1.515097   -1.099027   -1.192012
      4          8           0        3.597482   -0.546771   -0.075713
      5          6           0        1.596940   -0.158162    1.200529
      6          6           0        0.170195    0.409604    1.384348
      7          6           0       -0.935285   -0.461666    0.885120
      8          6           0       -2.030201   -0.053304    0.196218
      9          6           0       -3.054511   -0.985978   -0.187341
     10          7           0       -3.876547   -1.749484   -0.494063
     11          6           0       -2.227697    1.318536   -0.186268
     12          7           0       -2.378535    2.429906   -0.494506
     13          1           0        2.812294    1.942409   -0.102889
     14          1           0        1.297536    1.679819   -0.997929
     15          1           0        2.851734    1.256843   -1.734906
     16          1           0        1.481088   -2.119433   -0.789024
     17          1           0        0.488029   -0.787551   -1.404292
     18          1           0        2.061444   -1.126715   -2.139405
     19          1           0        3.629567   -1.476330    0.190068
     20          1           0        1.621058   -1.189922    1.580900
     21          1           0        2.269732    0.421514    1.841016
     22          1           0        0.008004    0.512981    2.468948
     23          1           0        0.087096    1.418431    0.969852
     24          1           0       -0.878631   -1.521679    1.126685
 ---------------------------------------------------------------------

 SCF Done:  E(RB3LYP) =  -534.894184048     A.U. after   15 cycles

 Excitation energies and oscillator strengths:

 Excited State   1:      Triplet-A      2.9390 eV  421.85 nm  f=0.0000  <S**2>=2.000
      43 -> 45         0.58378
      44 -> 45        -0.38272
      43 <- 45         0.10705
 This state for optimization and/or second-order correction.
 Total Energy, E(TD-HF/TD-DFT) =  -534.786176268
 Copying the excited state density for this state as the 1-particle RhoCI density.

 Excited State   2:      Triplet-A      4.5570 eV  272.07 nm  f=0.0000  <S**2>=2.000
      43 -> 45         0.37887
      44 -> 45         0.59334

 Excited State   3:      Singlet-A      4.5682 eV  271.41 nm  f=0.0423  <S**2>=0.000
      43 -> 45         0.21657
      44 -> 45         0.67191

 Excited State   4:      Triplet-A      5.1991 eV  238.47 nm  f=0.0000  <S**2>=2.000
      39 -> 45         0.55580
      41 -> 46        -0.16789
      43 -> 51         0.24454
      44 -> 51        -0.14916

 Excited State   5:      Singlet-A      5.3504 eV  231.73 nm  f=0.3205  <S**2>=0.000
      42 -> 45         0.13802
      43 -> 45         0.64910
      44 -> 45        -0.20301

 Excited State   6:      Singlet-A      5.8151 eV  213.21 nm  f=0.0048  <S**2>=0.000
      40 -> 45        -0.19663
      41 -> 45         0.64139
      42 -> 45        -0.19090

 The electronic state is 1-A.
 Alpha  occ. eigenvalues --  -19.17085 -14.37583 -14.37262 -10.29975 -10.27846
 Alpha  occ. eigenvalues --  -10.27072 -10.26821 -10.26557 -10.24027 -10.22127
 Alpha  occ. eigenvalues --  -10.20041 -10.19211  -1.04126  -0.94886  -0.93447
 Alpha  occ. eigenvalues --   -0.88095  -0.82774  -0.78146  -0.71645  -0.70947
 Alpha  occ. eigenvalues --   -0.65819  -0.61732  -0.58486  -0.54072  -0.52251
 Alpha  occ. eigenvalues --   -0.48263  -0.47196  -0.46348  -0.44301  -0.42798
 Alpha  occ. eigenvalues --   -0.42311  -0.41298  -0.39974  -0.39680  -0.39281
 Alpha  occ. eigenvalues --   -0.38629  -0.37781  -0.37259  -0.37187  -0.36628
 Alpha  occ. eigenvalues --   -0.36029  -0.34263  -0.30522  -0.29262
 Alpha virt. eigenvalues --   -0.10360  -0.02986  -0.01906  -0.00224   0.00220
 Alpha virt. eigenvalues --    0.00289   0.01009   0.02206   0.02749   0.03185
 Alpha virt. eigenvalues --    0.03938   0.04138   0.04600   0.05504   0.06302

 Mulliken charges:
               1
     1  C   -0.434341
     2  C    0.266648
     3  C   -0.458244
     4  O   -0.485698
     5  C   -0.341479
     6  C   -0.316718
     7  C    0.327773
     8  C    0.775244
     9  C   -0.116856
    10  N   -0.472239
    11  C   -0.336057
    12  N   -0.475468
    13  H    0.159033
    14  H    0.151068
    15  H    0.165232
    16  H    0.133130
    17  H    0.153874
    18  H    0.169742
    19  H    0.336761
    20  H    0.127730
    21  H    0.167020
    22  H    0.181612
    23  H    0.167167
    24  H    0.155067
 Sum of Mulliken charges =  -0.00000

 Dipole moment (field-independent basis, Debye):
    X=              3.5444    Y=             -1.8396    Z=              2.7833  Tot=              4.8676
 Quadrupole moment (field-independent basis, Debye-Ang):
   XX=            -99.6221   YY=            -81.1271   ZZ=            -70.2740
   XY=             -4.7070   XZ=             -3.4848   YZ=             -0.5567

 Normal termination of Gaussian 16 at Wed Jul 30 06:58:45 2025.
