 Gaussian 16, Revision C.02,
 Gaussian 16:  ES64L-G16RevC.02  7-Dec-2021

 ----------------------------------------------------------
 # td=(50-50,nstates=3) b3lyp/6-31+g(d,p) geom=connectivity
 ----------------------------------------------------------

 -------------------
 Title Card Required
 -------------------
 Symbolic Z-matrix:
 Charge =  0 Multiplicity = 1

                         Standard orientation:
 ---------------------------------------------------------------------
 Center     Atomic      Atomic             Coordinates (Angstroms)
 Number     Number       Type             X           Y           Z
 ---------------------------------------------------------------------
      1          6           0        7.232621   -2.962293   -0.387908
      2         14           0        5.504128   -3.675836   -0.124804
      3          6           0        4.959738   -4.673104   -1.634114
      4          6           0        5.455935   -4.748378    1.429253
      5          6           0        4.326900   -2.269325    0.100789
      6          6           0        3.551139   -1.337628    0.253703
      7          6           0        2.661774   -0.226004    0.430101
      8          6           0        3.240333    1.081237    0.304528
      9          6           0        3.764896    2.179347    0.189298
     10         14           0        4.594136    3.823797    0.019520
     11          6           0        5.544399    3.839202   -1.612225
     12          6           0        3.264394    5.165653    0.027094
     13          6           0        5.771167    4.046096    1.478999
     14          6           0        1.344779   -0.422251    0.707461
     15          6           0        0.326031    0.668160    0.907510
     16          6           0       -0.705979    0.657171   -0.187685
     17          6           0       -2.027663    0.436987   -0.006050
     18          6           0       -2.979530    0.431977   -1.085620
     19          6           0       -4.324982    0.231689   -0.982580
     20          6           0       -5.267179    0.227922   -2.072728
     21          6           0       -6.558428    0.002977   -1.709126
     22          6           0       -6.731978   -0.189101   -0.290410
     23          6           0       -7.929548   -0.434792    0.361405
     24          6           0       -7.988042   -0.609907    1.773861
     25          7           0       -8.006841   -0.749378    2.931225
     26          6           0       -9.145867   -0.518803   -0.378070
     27          7           0      -10.128086   -0.583411   -1.002609
     28         16           0       -5.190400   -0.070790    0.549785
     29          1           0        7.547111   -2.361695    0.472383
     30          1           0        7.966525   -3.765187   -0.525805
     31          1           0        7.264334   -2.320108   -1.274673
     32          1           0        3.948386   -5.072305   -1.501105
     33          1           0        5.636481   -5.519107   -1.803405
     34          1           0        4.960175   -4.054584   -2.538100
     35          1           0        6.144643   -5.596485    1.335650
     36          1           0        5.746553   -4.173921    2.315382
     37          1           0        4.451126   -5.148156    1.603575
     38          1           0        6.058145    4.797851   -1.751396
     39          1           0        6.298478    3.045278   -1.637122
     40          1           0        4.872239    3.689783   -2.464043
     41          1           0        3.717601    6.159041   -0.072673
     42          1           0        2.690910    5.151324    0.960332
     43          1           0        2.561422    5.033019   -0.802543
     44          1           0        6.529281    3.255879    1.498289
     45          1           0        6.289249    5.010335    1.414470
     46          1           0        5.231473    4.015991    2.431603
     47          1           0        0.990061   -1.447442    0.776907
     48          1           0       -0.168662    0.536401    1.878795
     49          1           0        0.834027    1.640243    0.922702
     50          1           0       -0.331855    0.829234   -1.197204
     51          1           0       -2.398329    0.260045    1.003211
     52          1           0       -2.592250    0.605266   -2.088796
     53          1           0       -4.941333    0.394347   -3.094046
     54          1           0       -7.400050   -0.035324   -2.390199
 ---------------------------------------------------------------------

 SCF Done:  E(RB3LYP) =  -1978.76173310     A.U. after   17 cycles

 Excitation energies and oscillator strengths:

 Excited State   1:      Triplet-A      1.2146 eV 1020.76 nm  f=0.0000  <S**2>=2.000
     110 ->112        -0.17058
     111 ->112         0.69547
     111 <-112         0.17690
 This state for optimization and/or second-order correction.
 Total Energy, E(TD-HF/TD-DFT) =  -1978.71709640
 Copying the excited state density for this state as the 1-particle RhoCI density.

 Excited State   2:      Triplet-A      2.3493 eV  527.75 nm  f=0.0000  <S**2>=2.000
     110 ->112         0.38395
     110 ->113         0.51317
     110 ->114        -0.13146
     111 ->113         0.22502
     110 <-113         0.10334

 Excited State   3:      Singlet-A      2.7058 eV  458.21 nm  f=0.5048  <S**2>=0.000
     110 ->112         0.51088
     111 ->112         0.48744

 Excited State   4:      Triplet-A      2.8151 eV  440.42 nm  f=0.0000  <S**2>=2.000
     105 ->112        -0.14910
     106 ->112         0.15896
     107 ->112         0.14728
     110 ->112         0.50245
     110 ->113        -0.33734
     111 ->112         0.11144
     111 ->114         0.17778

 Excited State   5:      Singlet-A      3.0165 eV  411.02 nm  f=0.8046  <S**2>=0.000
     110 ->112        -0.48172
     111 ->112         0.50390
     111 <-112        -0.10139

 Excited State   6:      Singlet-A      3.6212 eV  342.38 nm  f=0.0006  <S**2>=0.000
     109 ->112         0.69869

 The electronic state is 1-A.
 Alpha  occ. eigenvalues --  -88.94471 -66.14925 -66.14554 -14.35600 -14.35462
 Alpha  occ. eigenvalues --  -10.29199 -10.27761 -10.27031 -10.25713 -10.25221
 Alpha  occ. eigenvalues --  -10.25116 -10.25005 -10.24976 -10.24348 -10.24159
 Alpha  occ. eigenvalues --  -10.23458 -10.23317 -10.22760 -10.21141 -10.20756
 Alpha  occ. eigenvalues --  -10.18775 -10.18309 -10.17837 -10.17691 -10.17651
 Alpha  occ. eigenvalues --  -10.17426 -10.17386 -10.17373  -8.00407  -5.96879
 Alpha  occ. eigenvalues --   -5.96515  -5.95993  -5.29208  -5.28837  -3.65212
 Alpha  occ. eigenvalues --   -3.65036  -3.65030  -3.64838  -3.64665  -3.64664
 Alpha  occ. eigenvalues --   -0.93866  -0.91933  -0.91615  -0.86950  -0.85622
 Alpha  occ. eigenvalues --   -0.83414  -0.80122  -0.77918  -0.75661  -0.75627
 Alpha  occ. eigenvalues --   -0.73089  -0.72327  -0.71348  -0.69214  -0.69097
 Alpha  occ. eigenvalues --   -0.68836  -0.68810  -0.68289  -0.63387  -0.62242
 Alpha  occ. eigenvalues --   -0.60849  -0.58782  -0.57119  -0.56463  -0.55205
 Alpha  occ. eigenvalues --   -0.52066  -0.51140  -0.49917  -0.49244  -0.48215
 Alpha  occ. eigenvalues --   -0.45776  -0.44502  -0.44226  -0.43359  -0.43037
 Alpha  occ. eigenvalues --   -0.42207  -0.42096  -0.41962  -0.41707  -0.41680
 Alpha  occ. eigenvalues --   -0.41338  -0.40581  -0.40528  -0.40503  -0.40401
 Alpha  occ. eigenvalues --   -0.40171  -0.40143  -0.39753  -0.39381  -0.39050
 Alpha  occ. eigenvalues --   -0.38280  -0.37769  -0.37535  -0.37260  -0.36526
 Alpha  occ. eigenvalues --   -0.36123  -0.35578  -0.35407  -0.35297  -0.34426
 Alpha  occ. eigenvalues --   -0.32660  -0.32454  -0.32200  -0.31782  -0.30417
 Alpha  occ. eigenvalues --   -0.29714  -0.29008  -0.28455  -0.27458  -0.24574
 Alpha  occ. eigenvalues --   -0.23145
 Alpha virt. eigenvalues --   -0.12781  -0.07438  -0.04748  -0.03126  -0.02020
 Alpha virt. eigenvalues --   -0.01764  -0.01322  -0.01188  -0.00425   0.00212
 Alpha virt. eigenvalues --    0.00265   0.00362   0.00417   0.00796   0.01099

 Mulliken charges:
               1
     1  C   -0.685511
     2  Si   1.215399
     3  C   -0.680610
     4  C   -0.681905
     5  C   -0.828736
     6  C    0.374953
     7  C   -0.416521
     8  C    0.222365
     9  C   -0.820134
    10  Si   1.213156
    11  C   -0.678988
    12  C   -0.695928
    13  C   -0.672529
    14  C   -0.189416
    15  C    0.210981
    16  C    0.134734
    17  C   -0.218654
    18  C   -0.026588
    19  C   -0.226279
    20  C   -0.062208
    21  C    0.070321
    22  C    0.217306
    23  C    1.038273
    24  C   -0.333934
    25  N   -0.476081
    26  C   -0.335380
    27  N   -0.505828
    28  S   -0.324220
    29  H    0.167481
    30  H    0.161943
    31  H    0.167038
    32  H    0.165071
    33  H    0.161862
    34  H    0.165610
    35  H    0.161702
    36  H    0.166726
    37  H    0.165627
    38  H    0.162532
    39  H    0.169036
    40  H    0.165018
    41  H    0.164477
    42  H    0.165582
    43  H    0.163897
    44  H    0.168461
    45  H    0.162481
    46  H    0.166144
    47  H    0.143793
    48  H    0.152984
    49  H    0.174819
    50  H    0.135158
    51  H    0.124515
    52  H    0.136908
    53  H    0.150913
    54  H    0.172184
 Sum of Mulliken charges =  -0.00000

 Dipole moment (field-independent basis, Debye):
    X=              9.6944    Y=              1.9378    Z=             -3.8879  Tot=             10.6232
 Quadrupole moment (field-independent basis, Debye-Ang):
   XX=           -287.5319   YY=           -180.1356   ZZ=           -196.6231
   XY=            -10.5852   XZ=             21.4081   YZ=              0.6909

 Normal termination of Gaussian 16 at Wed Jul 30 06:45:19 2025.
