 Gaussian 16, Revision C.02,
 Gaussian 16:  ES64L-G16RevC.02  7-Dec-2021

 ----------------------------------------------------------
 # td=(50-50,nstates=3) b3lyp/6-31+g(d,p) geom=connectivity
 ----------------------------------------------------------

 -------------------
 Title Card Required
 -------------------
 Symbolic Z-matrix:
 Charge =  0 Multiplicity = 1

                         Standard orientation:
 ---------------------------------------------------------------------
 Center     Atomic      Atomic             Coordinates (Angstroms)
 Number     Number       Type             X           Y           Z
 ---------------------------------------------------------------------
      1          6           0        3.675150   -1.421670   -0.943721
      2          6           0        2.777985   -0.614559   -0.001178
      3          6           0        2.253934   -1.506944    1.137311
      4          8           0        3.610340    0.427404    0.519494
      5          6           0        1.612778    0.003551   -0.814928
      6          6           0        0.712969    0.962800   -0.061697
      7          8           0        1.019468    1.499360    0.985951
      8          6           0       -0.672193    1.231636   -0.716931
      9          6           0       -1.183495    2.559930   -0.358470
     10          7           0       -1.600266    3.611970   -0.100200
     11          6           0       -1.642755    0.110779   -0.324146
     12          6           0       -2.057746   -0.031749    1.006885
     13          6           0       -2.923652   -1.067108    1.361994
     14          6           0       -3.378681   -1.968505    0.394633
     15          6           0       -2.967154   -1.828582   -0.932562
     16          6           0       -2.101501   -0.791465   -1.290855
     17          1           0        4.073220   -0.780794   -1.736608
     18          1           0        4.520229   -1.831437   -0.383134
     19          1           0        3.125464   -2.251114   -1.400919
     20          1           0        1.646606   -0.935768    1.845384
     21          1           0        3.101414   -1.931807    1.682954
     22          1           0        1.645141   -2.330841    0.747853
     23          1           0        3.054125    0.993114    1.078568
     24          1           0        2.035263    0.583340   -1.650197
     25          1           0        0.995511   -0.782154   -1.267612
     26          1           0       -0.542890    1.209712   -1.805538
     27          1           0       -1.709980    0.669714    1.759752
     28          1           0       -3.244451   -1.167648    2.394450
     29          1           0       -4.054022   -2.771746    0.673542
     30          1           0       -3.322284   -2.519647   -1.691181
     31          1           0       -1.793778   -0.679512   -2.327495
 ---------------------------------------------------------------------

 SCF Done:  E(RB3LYP) =  -709.648782718     A.U. after   15 cycles

 Excitation energies and oscillator strengths:

 Excited State   1:      Triplet-A      3.5993 eV  344.47 nm  f=0.0000  <S**2>=2.000
      55 -> 61        -0.19705
      56 -> 60        -0.28029
      57 -> 59         0.11296
      57 -> 61         0.10679
      58 -> 59         0.52993
      58 -> 60        -0.14026
      58 -> 61         0.10398
 This state for optimization and/or second-order correction.
 Total Energy, E(TD-HF/TD-DFT) =  -709.516512105
 Copying the excited state density for this state as the 1-particle RhoCI density.

 Excited State   2:      Triplet-A      3.8209 eV  324.49 nm  f=0.0000  <S**2>=2.000
      55 -> 59         0.42547
      56 -> 60         0.28508
      56 -> 61         0.12118
      57 -> 61        -0.10870
      58 -> 59         0.23608
      58 -> 60         0.20697
      58 -> 61        -0.27168

 Excited State   3:      Singlet-A      4.2310 eV  293.04 nm  f=0.0142  <S**2>=0.000
      55 -> 59         0.33688
      58 -> 59         0.57648
      58 -> 61        -0.13599

 Excited State   4:      Triplet-A      4.4907 eV  276.09 nm  f=0.0000  <S**2>=2.000
      55 -> 60         0.12055
      56 -> 59         0.49008
      56 -> 61         0.28848
      57 -> 59        -0.19293
      57 -> 61        -0.13347
      58 -> 60        -0.27955

 Excited State   5:      Singlet-A      4.9141 eV  252.30 nm  f=0.0010  <S**2>=0.000
      55 -> 59         0.11579
      56 -> 59         0.14955
      57 -> 59         0.66625

 Excited State   6:      Singlet-A      4.9979 eV  248.07 nm  f=0.0089  <S**2>=0.000
      55 -> 59        -0.11306
      55 -> 60        -0.10154
      56 -> 59         0.59319
      57 -> 60         0.10967
      58 -> 59         0.14576
      58 -> 60         0.26139

 The electronic state is 1-A.
 Alpha  occ. eigenvalues --  -19.18939 -19.15204 -14.35226 -10.32450 -10.27205
 Alpha  occ. eigenvalues --  -10.26505 -10.24488 -10.24256 -10.22601 -10.22340
 Alpha  occ. eigenvalues --  -10.22250 -10.22139 -10.22102 -10.22050 -10.18787
 Alpha  occ. eigenvalues --  -10.18683  -1.09013  -1.02608  -0.92172  -0.89208
 Alpha  occ. eigenvalues --   -0.83922  -0.81174  -0.77638  -0.75992  -0.73677
 Alpha  occ. eigenvalues --   -0.70370  -0.63912  -0.62736  -0.60988  -0.57571
 Alpha  occ. eigenvalues --   -0.55396  -0.52788  -0.51604  -0.51040  -0.49349
 Alpha  occ. eigenvalues --   -0.47856  -0.46671  -0.46439  -0.45567  -0.44839
 Alpha  occ. eigenvalues --   -0.44319  -0.42673  -0.40162  -0.39580  -0.39521
 Alpha  occ. eigenvalues --   -0.39064  -0.38259  -0.37587  -0.37518  -0.37131
 Alpha  occ. eigenvalues --   -0.36502  -0.34546  -0.34227  -0.34025  -0.29595
 Alpha  occ. eigenvalues --   -0.28246  -0.28109  -0.27284
 Alpha virt. eigenvalues --   -0.06882  -0.04257  -0.03507  -0.01811  -0.00126
 Alpha virt. eigenvalues --    0.00209   0.01252   0.01405   0.01968   0.02551
 Alpha virt. eigenvalues --    0.02932   0.03429   0.03790   0.03806   0.04727

 Mulliken charges:
               1
     1  C   -0.398415
     2  C    0.283390
     3  C   -0.515716
     4  O   -0.485346
     5  C   -0.553682
     6  C    0.465845
     7  O   -0.406168
     8  C    0.382638
     9  C   -0.247790
    10  N   -0.412179
    11  C    0.111417
    12  C   -0.020376
    13  C   -0.076814
    14  C   -0.086510
    15  C   -0.297534
    16  C   -0.237504
    17  H    0.153654
    18  H    0.163972
    19  H    0.143271
    20  H    0.157851
    21  H    0.161868
    22  H    0.143676
    23  H    0.371030
    24  H    0.190273
    25  H    0.168284
    26  H    0.172792
    27  H    0.146907
    28  H    0.136825
    29  H    0.133245
    30  H    0.134121
    31  H    0.116973
 Sum of Mulliken charges =  -0.00000

 Dipole moment (field-independent basis, Debye):
    X=             -1.4218    Y=             -5.6987    Z=             -2.3701  Tot=              6.3335
 Quadrupole moment (field-independent basis, Debye-Ang):
   XX=           -105.3940   YY=           -111.6857   ZZ=            -88.9165
   XY=              8.5769   XZ=             -3.8736   YZ=             -2.3183

 Normal termination of Gaussian 16 at Wed Jul 30 06:37:08 2025.
