 Gaussian 16, Revision C.02,
 Gaussian 16:  ES64L-G16RevC.02  7-Dec-2021

 ----------------------------------------------------------
 # td=(50-50,nstates=3) b3lyp/6-31+g(d,p) geom=connectivity
 ----------------------------------------------------------

 -------------------
 Title Card Required
 -------------------
 Symbolic Z-matrix:
 Charge =  0 Multiplicity = 1

                         Standard orientation:
 ---------------------------------------------------------------------
 Center     Atomic      Atomic             Coordinates (Angstroms)
 Number     Number       Type             X           Y           Z
 ---------------------------------------------------------------------
      1          6           0       -1.863808   -2.753489   -0.135502
      2          8           0       -0.546168   -2.278407   -0.197131
      3          6           0       -0.518617   -0.925555   -0.127085
      4          6           0        0.650096   -0.277587   -0.169713
      5          6           0        0.677238    1.057369   -0.100590
      6          6           0        1.845951    1.705337   -0.143218
      7          6           0        1.872614    3.016318   -0.075338
      8          7           0        1.896112    4.172567   -0.015468
      9          6           0        3.124102    0.936194   -0.268335
     10          6           0        2.816809   -0.554314   -0.327252
     11          6           0        4.042740   -1.342619   -0.754530
     12          6           0        3.984046   -2.635595    0.050358
     13          6           0        2.731591   -2.516024    0.901594
     14          7           0        2.514334   -1.075713    1.002762
     15          6           0       -0.464332    1.744359    0.011159
     16          8           0       -0.436781    3.097211    0.081205
     17          6           0       -1.734202    3.616401    0.194316
     18          6           0       -1.633045    1.096391    0.053787
     19          6           0       -1.660187   -0.238566   -0.015336
     20          6           0       -2.828900   -0.886534    0.027292
     21          6           0       -4.004137   -1.358058   -0.230885
     22          7           0       -4.027635   -2.514308   -0.290755
     23          6           0       -3.949971   -0.211890    0.137034
     24          7           0       -4.938716    0.383143    0.233824
     25          1           0       -1.861256   -3.864860   -0.194705
     26          1           0       -2.328018   -2.434717    0.824587
     27          1           0       -2.447999   -2.338107   -0.986976
     28          1           0        1.589285   -0.842758   -0.261649
     29          1           0        3.651418    1.242763   -1.199266
     30          1           0        3.771366    1.146827    0.612234
     31          1           0        1.965935   -0.663328   -1.036356
     32          1           0        4.006251   -1.560068   -1.845431
     33          1           0        4.985225   -0.779758   -0.571296
     34          1           0        4.885885   -2.735196    0.695043
     35          1           0        3.957970   -3.534238   -0.605632
     36          1           0        1.867471   -3.012948    0.406491
     37          1           0        2.838378   -3.005794    1.895299
     38          1           0        3.149749   -0.684027    1.697931
     39          1           0       -1.686428    4.726949    0.250157
     40          1           0       -2.332450    3.315568   -0.694678
     41          1           0       -2.213551    3.219051    1.116861
     42          1           0       -2.572234    1.661561    0.145723
 ---------------------------------------------------------------------

 SCF Done:  E(RB3LYP) =  -1065.36742772     A.U. after   23 cycles

 Excitation energies and oscillator strengths:

 Excited State   1:      Triplet-A      -1.4616 eV    -848.30 nm  f=-0.0000  <S**2>=2.000
      84 -> 87         0.28094
      85 -> 86         0.11103
      85 -> 87         0.62123
 This state for optimization and/or second-order correction.
 Total Energy, E(TD-HF/TD-DFT) =  -1065.42113884
 Copying the excited state density for this state as the 1-particle RhoCI density.

 Excited State   2:      Triplet-A      -0.5211 eV    -2379.41 nm  f=-0.0000  <S**2>=2.000
      83 -> 86         0.14419
      84 -> 86        -0.34786
      85 -> 86         0.63763
      84 <- 86        -0.20327

 Excited State   3:      Triplet-A      0.6928 eV 1789.69 nm  f=0.0000  <S**2>=2.000
      83 -> 86        -0.13758
      84 -> 86         0.64388
      85 -> 86         0.29819
      84 <- 86         0.18115

 Excited State   4:      Singlet-A      0.7331 eV 1691.21 nm  f=0.0051  <S**2>=0.000
      84 -> 86         0.25296
      85 -> 86         0.65884

 Excited State   5:      Singlet-A      1.8000 eV  688.78 nm  f=0.0448  <S**2>=0.000
      83 -> 86         0.49492
      84 -> 86         0.46406
      85 -> 86        -0.13532
      85 -> 87        -0.14545

 Excited State   6:      Singlet-A      2.1074 eV  588.33 nm  f=0.0136  <S**2>=0.000
      82 -> 86         0.16568
      83 -> 86         0.22867
      83 -> 87         0.11111
      84 -> 87        -0.28558
      85 -> 87         0.56128

 The electronic state is 1-A.
 Alpha  occ. eigenvalues --  -19.21474 -19.19715 -14.36188 -14.35084 -14.34321
 Alpha  occ. eigenvalues --  -14.33804 -10.27078 -10.25862 -10.25327 -10.24962
 Alpha  occ. eigenvalues --  -10.24911 -10.24487 -10.24344 -10.24300 -10.23679
 Alpha  occ. eigenvalues --  -10.23496 -10.23468 -10.23013 -10.22831 -10.22302
 Alpha  occ. eigenvalues --  -10.20758 -10.20597 -10.19914 -10.16038  -1.11634
 Alpha  occ. eigenvalues --   -1.10333  -1.08826  -1.00146  -0.94525  -0.94110
 Alpha  occ. eigenvalues --   -0.92119  -0.89288  -0.87019  -0.82931  -0.81288
 Alpha  occ. eigenvalues --   -0.79022  -0.77511  -0.74458  -0.73545  -0.70818
 Alpha  occ. eigenvalues --   -0.69517  -0.66107  -0.63205  -0.61590  -0.60527
 Alpha  occ. eigenvalues --   -0.58137  -0.55224  -0.54999  -0.54632  -0.53960
 Alpha  occ. eigenvalues --   -0.52233  -0.51066  -0.49974  -0.49761  -0.48405
 Alpha  occ. eigenvalues --   -0.47842  -0.47589  -0.46776  -0.45735  -0.45070
 Alpha  occ. eigenvalues --   -0.44247  -0.43466  -0.43356  -0.41723  -0.41258
 Alpha  occ. eigenvalues --   -0.40160  -0.39197  -0.38641  -0.38445  -0.38093
 Alpha  occ. eigenvalues --   -0.37329  -0.37316  -0.36594  -0.36437  -0.34945
 Alpha  occ. eigenvalues --   -0.34205  -0.33490  -0.31535  -0.31149  -0.29791
 Alpha  occ. eigenvalues --   -0.28261  -0.25165  -0.24112  -0.22164  -0.19845
 Alpha virt. eigenvalues --   -0.14226  -0.09838  -0.03356  -0.02068  -0.01645
 Alpha virt. eigenvalues --   -0.00643  -0.00108   0.00257   0.01007   0.01338
 Alpha virt. eigenvalues --    0.01927   0.02314   0.02574   0.02779   0.02983

 Mulliken charges:
               1
     1  C   -0.155244
     2  O   -0.403329
     3  C   -0.557072
     4  C   -0.935046
     5  C    0.393864
     6  C   -0.240879
     7  C    0.225157
     8  N   -0.642553
     9  C   -0.373553
    10  C   -0.125849
    11  C    0.226300
    12  C   -0.243541
    13  C   -0.164886
    14  N   -0.497424
    15  C   -0.272394
    16  O   -0.309984
    17  C   -0.138759
    18  C   -0.457556
    19  C    1.825649
    20  C    0.339558
    21  C    0.495883
    22  N   -0.427653
    23  C    0.164525
    24  N   -0.624625
    25  H    0.140162
    26  H    0.158200
    27  H    0.150468
    28  H    0.083424
    29  H    0.183806
    30  H    0.169335
    31  H    0.190536
    32  H    0.143706
    33  H    0.143375
    34  H    0.147275
    35  H    0.145952
    36  H    0.171380
    37  H    0.142934
    38  H    0.328180
    39  H    0.157044
    40  H    0.146398
    41  H    0.146697
    42  H    0.150535
 Sum of Mulliken charges =  -0.00000

 Dipole moment (field-independent basis, Debye):
    X=              6.6341    Y=             -1.9038    Z=              0.1186  Tot=              6.9029
 Quadrupole moment (field-independent basis, Debye-Ang):
   XX=           -159.4655   YY=           -160.9486   ZZ=           -136.5786
   XY=            -22.0643   XZ=              2.0484   YZ=             -2.0867

 Normal termination of Gaussian 16 at Wed Jul 30 06:44:25 2025.
