 Gaussian 16, Revision C.02,
 Gaussian 16:  ES64L-G16RevC.02  7-Dec-2021

 ----------------------------------------------------------
 # td=(50-50,nstates=3) b3lyp/6-31+g(d,p) geom=connectivity
 ----------------------------------------------------------

 -------------------
 Title Card Required
 -------------------
 Symbolic Z-matrix:
 Charge =  0 Multiplicity = 1

                         Standard orientation:
 ---------------------------------------------------------------------
 Center     Atomic      Atomic             Coordinates (Angstroms)
 Number     Number       Type             X           Y           Z
 ---------------------------------------------------------------------
      1          6           0       -5.404089    0.699294   -1.496251
      2          6           0       -4.547720   -0.062398   -0.775183
      3          6           0       -4.644224   -1.495928   -0.838572
      4          7           0       -4.755453   -2.649948   -0.923142
      5          6           0       -3.528935    0.557751    0.046132
      6          6           0       -2.503296    0.326167    0.905821
      7          6           0       -1.755530   -0.729217    1.659663
      8          6           0       -2.353470   -2.136995    1.539590
      9          6           0       -0.218535   -0.691749    1.391116
     10          6           0        0.300429   -1.277659    0.063632
     11          6           0        0.017338   -0.482259   -1.225033
     12          6           0        0.657895    0.916172   -1.338600
     13          6           0        2.204070    0.933031   -1.323368
     14          6           0        2.816785    1.250066    0.048952
     15          6           0        4.335091    1.208823    0.085251
     16         35           0        5.038459   -0.644321   -0.077023
     17          6           0       -2.367062    1.816875    0.954447
     18          8           0       -1.721973    2.677037    1.464744
     19          8           0       -3.455609    1.989898    0.031688
     20          1           0       -5.335526    1.779959   -1.457662
     21          1           0       -6.166138    0.244143   -2.118143
     22          1           0       -1.854211   -0.427486    2.714618
     23          1           0       -1.786854   -2.829939    2.170030
     24          1           0       -3.394840   -2.157062    1.874066
     25          1           0       -2.326483   -2.519031    0.516947
     26          1           0        0.127762    0.340703    1.514791
     27          1           0        0.241788   -1.261282    2.208652
     28          1           0        1.384581   -1.411693    0.164213
     29          1           0       -0.099619   -2.291263   -0.062224
     30          1           0        0.371594   -1.085641   -2.072160
     31          1           0       -1.065348   -0.382038   -1.366954
     32          1           0        0.308750    1.353020   -2.282181
     33          1           0        0.276802    1.580334   -0.551728
     34          1           0        2.568159    1.686375   -2.034239
     35          1           0        2.586941   -0.030796   -1.681524
     36          1           0        2.421939    0.585925    0.824151
     37          1           0        2.523775    2.270641    0.339607
     38          1           0        4.794063    1.763737   -0.734590
     39          1           0        4.733143    1.564949    1.035098
 ---------------------------------------------------------------------

 SCF Done:  E(RB3LYP) =  -3360.53802440     A.U. after   16 cycles

 Excitation energies and oscillator strengths:

 Excited State   1:      Triplet-A      1.8728 eV  662.03 nm  f=0.0000  <S**2>=2.000
      80 -> 85         0.13648
      84 -> 85         0.68707
      84 <- 85         0.13496
 This state for optimization and/or second-order correction.
 Total Energy, E(TD-HF/TD-DFT) =  -3360.46920026
 Copying the excited state density for this state as the 1-particle RhoCI density.

 Excited State   2:      Singlet-A      3.4040 eV  364.23 nm  f=0.1601  <S**2>=0.000
      80 -> 85        -0.13875
      84 -> 85         0.68121

 Excited State   3:      Triplet-A      3.4628 eV  358.04 nm  f=0.0000  <S**2>=2.000
      63 -> 85        -0.10301
      77 -> 85         0.12437
      78 -> 85         0.17610
      79 -> 85        -0.23364
      80 -> 85         0.51839
      80 -> 86        -0.12685
      84 -> 85        -0.11019
      84 -> 86        -0.27375

 Excited State   4:      Triplet-A      3.8571 eV  321.45 nm  f=0.0000  <S**2>=2.000
      81 -> 85         0.65006
      81 -> 86         0.19787

 Excited State   5:      Singlet-A      3.9943 eV  310.40 nm  f=0.0001  <S**2>=0.000
      83 -> 85         0.70455

 Excited State   6:      Singlet-A      4.0548 eV  305.77 nm  f=0.0002  <S**2>=0.000
      82 -> 85         0.70437

 The electronic state is 1-A.
 Alpha  occ. eigenvalues -- -482.91293 -61.87323 -56.39014 -56.38679 -56.38651
 Alpha  occ. eigenvalues --  -19.21209 -19.19564 -14.37282 -10.35444 -10.31020
 Alpha  occ. eigenvalues --  -10.28750 -10.26476 -10.25851 -10.24945 -10.24296
 Alpha  occ. eigenvalues --  -10.22950 -10.20413 -10.20152 -10.19370 -10.19188
 Alpha  occ. eigenvalues --  -10.19145 -10.19019 -10.18992  -8.57935  -6.53132
 Alpha  occ. eigenvalues --   -6.51935  -6.51914  -2.64686  -2.64356  -2.64338
 Alpha  occ. eigenvalues --   -2.63384  -2.63384  -1.13752  -1.07731  -0.94109
 Alpha  occ. eigenvalues --   -0.86785  -0.84847  -0.83214  -0.80417  -0.78174
 Alpha  occ. eigenvalues --   -0.75561  -0.72404  -0.70794  -0.68625  -0.66321
 Alpha  occ. eigenvalues --   -0.65454  -0.61989  -0.59480  -0.56280  -0.55111
 Alpha  occ. eigenvalues --   -0.53701  -0.51365  -0.50566  -0.49737  -0.48826
 Alpha  occ. eigenvalues --   -0.47413  -0.46991  -0.46193  -0.45855  -0.44566
 Alpha  occ. eigenvalues --   -0.43895  -0.42991  -0.42244  -0.41754  -0.41212
 Alpha  occ. eigenvalues --   -0.39710  -0.39315  -0.38943  -0.38727  -0.38068
 Alpha  occ. eigenvalues --   -0.37829  -0.36727  -0.36037  -0.35428  -0.34867
 Alpha  occ. eigenvalues --   -0.34400  -0.32791  -0.32293  -0.32177  -0.32091
 Alpha  occ. eigenvalues --   -0.31191  -0.27951  -0.27711  -0.26084
 Alpha virt. eigenvalues --   -0.11841  -0.04762  -0.02064  -0.01461  -0.01027
 Alpha virt. eigenvalues --    0.00080   0.00524   0.00988   0.01203   0.02260
 Alpha virt. eigenvalues --    0.02518   0.02953   0.03223   0.03676   0.04376

 Mulliken charges:
               1
     1  C   -0.056909
     2  C    1.407612
     3  C   -0.825527
     4  N   -0.450438
     5  C    0.057371
     6  C   -0.230348
     7  C    0.006228
     8  C   -0.558709
     9  C   -0.397938
    10  C   -0.293353
    11  C   -0.297288
    12  C   -0.078830
    13  C   -0.329570
    14  C   -0.134687
    15  C   -0.422833
    16  Br  -0.177499
    17  C    0.480610
    18  O   -0.401679
    19  O   -0.344841
    20  H    0.192845
    21  H    0.177392
    22  H    0.154539
    23  H    0.151795
    24  H    0.156419
    25  H    0.168675
    26  H    0.148469
    27  H    0.142309
    28  H    0.147875
    29  H    0.134708
    30  H    0.135985
    31  H    0.125093
    32  H    0.132836
    33  H    0.132817
    34  H    0.133593
    35  H    0.153678
    36  H    0.155013
    37  H    0.153639
    38  H    0.174650
    39  H    0.176300
 Sum of Mulliken charges =  -0.00000

 Dipole moment (field-independent basis, Debye):
    X=             -1.6012    Y=              1.4933    Z=             -0.4239  Tot=              2.2301
 Quadrupole moment (field-independent basis, Debye-Ang):
   XX=           -130.4125   YY=           -144.6658   ZZ=           -125.8587
   XY=             -0.6450   XZ=              4.6636   YZ=             -8.6776

 Normal termination of Gaussian 16 at Tue Jul 29 22:39:50 2025.
