 Gaussian 16, Revision C.02,
 Gaussian 16:  ES64L-G16RevC.02  7-Dec-2021

 ----------------------------------------------------------
 # td=(50-50,nstates=3) b3lyp/6-31+g(d,p) geom=connectivity
 ----------------------------------------------------------

 -------------------
 Title Card Required
 -------------------
 Symbolic Z-matrix:
 Charge =  0 Multiplicity = 1

                         Standard orientation:
 ---------------------------------------------------------------------
 Center     Atomic      Atomic             Coordinates (Angstroms)
 Number     Number       Type             X           Y           Z
 ---------------------------------------------------------------------
      1          6           0       -6.827961    0.007052   -0.761940
      2          7           0       -5.985463   -0.769609    0.135700
      3          6           0       -6.565791   -1.923717    0.809004
      4          6           0       -4.614069   -0.617102    0.094719
      5          6           0       -3.755889   -1.451695    0.857455
      6          6           0       -2.381563   -1.295203    0.809977
      7          6           0       -1.767948   -0.297007    0.026257
      8          6           0       -0.308418   -0.130347   -0.008162
      9          6           0        0.537975   -1.236307   -0.030639
     10          6           0        0.158668   -2.543498   -0.622357
     11          8           0       -0.870543   -2.965304   -1.098768
     12          8           0        1.317171   -3.318521   -0.675870
     13          6           0        2.343383   -2.629140   -0.040262
     14          6           0        3.557903   -3.406889    0.183336
     15          6           0        4.320611   -3.346495    1.299642
     16          6           0        3.947597   -4.318352   -0.867630
     17          7           0        4.289752   -5.042525   -1.711195
     18          6           0        1.959814   -1.360597    0.310101
     19          7           0        2.739668   -0.349980    0.877691
     20          6           0        2.370876    0.168165    2.186856
     21          6           0        4.137848   -0.203861    0.530631
     22          6           0        0.207391    1.250198   -0.045781
     23          6           0        1.296317    1.610080   -0.865237
     24          6           0        1.754077    2.917072   -0.948769
     25          6           0        1.160313    3.952423   -0.180970
     26          7           0        1.634206    5.249898   -0.231179
     27          6           0        0.888653    6.317145    0.420096
     28          6           0        2.654681    5.611447   -1.204488
     29          6           0        0.059592    3.597263    0.638921
     30          6           0       -0.400997    2.287778    0.688896
     31          6           0       -2.624705    0.543527   -0.714220
     32          6           0       -4.003007    0.385120   -0.700976
     33          1           0       -7.874463   -0.215558   -0.550449
     34          1           0       -6.680032    1.082057   -0.608819
     35          1           0       -6.633977   -0.219440   -1.821309
     36          1           0       -7.652675   -1.866297    0.740629
     37          1           0       -6.240690   -2.874740    0.362360
     38          1           0       -6.300570   -1.936035    1.872430
     39          1           0       -4.165580   -2.232666    1.485324
     40          1           0       -1.760055   -1.955627    1.405689
     41          1           0        5.232207   -3.926547    1.385651
     42          1           0        4.027787   -2.728387    2.139698
     43          1           0        1.293039    0.092474    2.333437
     44          1           0        2.868876   -0.382932    3.004478
     45          1           0        2.654200    1.224098    2.263144
     46          1           0        4.298013   -0.511210   -0.505589
     47          1           0        4.414524    0.853151    0.628288
     48          1           0        4.823964   -0.790185    1.166153
     49          1           0        1.764638    0.850884   -1.482325
     50          1           0        2.570500    3.135442   -1.625787
     51          1           0       -0.121014    6.441916   -0.000095
     52          1           0        0.790573    6.130768    1.495582
     53          1           0        1.429071    7.256330    0.296506
     54          1           0        3.559148    5.008040   -1.069356
     55          1           0        2.310521    5.486704   -2.242609
     56          1           0        2.931201    6.656387   -1.059166
     57          1           0       -0.443798    4.345406    1.238396
     58          1           0       -1.247436    2.057648    1.328559
     59          1           0       -2.195664    1.314607   -1.346254
     60          1           0       -4.604570    1.037462   -1.321333
 ---------------------------------------------------------------------

 SCF Done:  E(RB3LYP) =  -1377.08043143     A.U. after   18 cycles

 Excitation energies and oscillator strengths:

 Excited State   1:      Triplet-A      1.3716 eV  903.91 nm  f=0.0000  <S**2>=2.000
     111 ->115         0.13180
     114 ->115         0.68146
     114 <-115         0.10917
 This state for optimization and/or second-order correction.
 Total Energy, E(TD-HF/TD-DFT) =  -1377.03002456
 Copying the excited state density for this state as the 1-particle RhoCI density.

 Excited State   2:      Triplet-A      2.2531 eV  550.27 nm  f=0.0000  <S**2>=2.000
     112 ->115         0.55716
     113 ->115        -0.21019
     114 ->116        -0.33296

 Excited State   3:      Triplet-A      2.3597 eV  525.43 nm  f=0.0000  <S**2>=2.000
     112 ->115         0.19105
     113 ->115         0.64120
     113 ->116         0.10612

 Excited State   4:      Singlet-A      2.3901 eV  518.75 nm  f=0.3558  <S**2>=0.000
     112 ->115         0.18644
     113 ->115        -0.12260
     114 ->115         0.66852

 Excited State   5:      Singlet-A      2.6716 eV  464.09 nm  f=0.1540  <S**2>=0.000
     111 ->115        -0.10251
     112 ->115         0.56537
     113 ->115        -0.32830
     114 ->115        -0.22511

 Excited State   6:      Singlet-A      2.8516 eV  434.79 nm  f=0.3336  <S**2>=0.000
     112 ->115         0.34686
     113 ->115         0.60809

 The electronic state is 1-A.
 Alpha  occ. eigenvalues --  -19.19222 -19.12475 -14.37942 -14.37400 -14.35505
 Alpha  occ. eigenvalues --  -14.33514 -10.30279 -10.25106 -10.24909 -10.24906
 Alpha  occ. eigenvalues --  -10.24279 -10.23715 -10.23685 -10.23442 -10.23138
 Alpha  occ. eigenvalues --  -10.23027 -10.22740 -10.22721 -10.21842 -10.21789
 Alpha  occ. eigenvalues --  -10.21668 -10.20337 -10.20288 -10.20221 -10.20070
 Alpha  occ. eigenvalues --  -10.19797 -10.19772 -10.19762 -10.19598 -10.19505
 Alpha  occ. eigenvalues --  -10.19139 -10.19000  -1.10094  -1.01546  -0.96933
 Alpha  occ. eigenvalues --   -0.96355  -0.94726  -0.90245  -0.87198  -0.85167
 Alpha  occ. eigenvalues --   -0.82839  -0.81908  -0.77940  -0.76445  -0.75878
 Alpha  occ. eigenvalues --   -0.75625  -0.73917  -0.73317  -0.73001  -0.72181
 Alpha  occ. eigenvalues --   -0.70122  -0.67699  -0.66983  -0.64941  -0.62988
 Alpha  occ. eigenvalues --   -0.61790  -0.61040  -0.58977  -0.58478  -0.56006
 Alpha  occ. eigenvalues --   -0.55882  -0.54145  -0.53928  -0.52382  -0.50302
 Alpha  occ. eigenvalues --   -0.49801  -0.49296  -0.48360  -0.47975  -0.47725
 Alpha  occ. eigenvalues --   -0.47699  -0.47083  -0.46580  -0.45953  -0.45559
 Alpha  occ. eigenvalues --   -0.44830  -0.44381  -0.43674  -0.43417  -0.43079
 Alpha  occ. eigenvalues --   -0.42805  -0.42615  -0.42459  -0.42027  -0.41638
 Alpha  occ. eigenvalues --   -0.41172  -0.40799  -0.40300  -0.39921  -0.39871
 Alpha  occ. eigenvalues --   -0.39338  -0.38987  -0.38544  -0.37974  -0.37494
 Alpha  occ. eigenvalues --   -0.37381  -0.37161  -0.36171  -0.35582  -0.34568
 Alpha  occ. eigenvalues --   -0.34074  -0.33857  -0.32764  -0.31993  -0.30420
 Alpha  occ. eigenvalues --   -0.29591  -0.28114  -0.26996  -0.26250  -0.25334
 Alpha  occ. eigenvalues --   -0.24153  -0.20895  -0.20555  -0.18626
 Alpha virt. eigenvalues --   -0.08715  -0.04970  -0.02380  -0.01494  -0.00999
 Alpha virt. eigenvalues --   -0.00553  -0.00407  -0.00091   0.00523   0.01162
 Alpha virt. eigenvalues --    0.01413   0.01657   0.01811   0.02205   0.02479

 Mulliken charges:
               1
     1  C   -0.299990
     2  N   -0.108334
     3  C   -0.293943
     4  C    0.348539
     5  C   -0.280037
     6  C   -0.489359
     7  C    0.444832
     8  C    0.332698
     9  C    0.188370
    10  C    0.999595
    11  O   -0.477457
    12  O   -0.283910
    13  C   -0.232867
    14  C   -0.305170
    15  C   -0.484506
    16  C    0.253211
    17  N   -0.519919
    18  C   -0.546982
    19  N    0.052077
    20  C   -0.122425
    21  C   -0.201298
    22  C    0.263298
    23  C   -0.230031
    24  C   -0.125501
    25  C    0.252996
    26  N   -0.102381
    27  C   -0.283431
    28  C   -0.290802
    29  C   -0.085554
    30  C   -0.692222
    31  C   -0.361208
    32  C   -0.191408
    33  H    0.134138
    34  H    0.150100
    35  H    0.156605
    36  H    0.133034
    37  H    0.160823
    38  H    0.150979
    39  H    0.111757
    40  H    0.115359
    41  H    0.159579
    42  H    0.151992
    43  H    0.155589
    44  H    0.125521
    45  H    0.142493
    46  H    0.155328
    47  H    0.140061
    48  H    0.135407
    49  H    0.124146
    50  H    0.111608
    51  H    0.153925
    52  H    0.151390
    53  H    0.134866
    54  H    0.151788
    55  H    0.154755
    56  H    0.135000
    57  H    0.111126
    58  H    0.132566
    59  H    0.123499
    60  H    0.109687
 Sum of Mulliken charges =  -0.00000

 Dipole moment (field-independent basis, Debye):
    X=             -3.3684    Y=             11.0705    Z=              4.7141  Tot=             12.4949
 Quadrupole moment (field-independent basis, Debye-Ang):
   XX=           -153.4355   YY=           -197.9288   ZZ=           -193.8963
   XY=             27.5129   XZ=             10.0794   YZ=            -25.7630

 Normal termination of Gaussian 16 at Tue Jul 29 22:50:20 2025.
