 Gaussian 16, Revision C.02,
 Gaussian 16:  ES64L-G16RevC.02  7-Dec-2021

 ----------------------------------------------------------
 # td=(50-50,nstates=3) b3lyp/6-31+g(d,p) geom=connectivity
 ----------------------------------------------------------

 -------------------
 Title Card Required
 -------------------
 Symbolic Z-matrix:
 Charge =  0 Multiplicity = 1

                         Standard orientation:
 ---------------------------------------------------------------------
 Center     Atomic      Atomic             Coordinates (Angstroms)
 Number     Number       Type             X           Y           Z
 ---------------------------------------------------------------------
      1          6           0        4.242573   -0.252005   -0.028174
      2          6           0        2.733060   -0.153746   -0.027093
      3          6           0        1.941259   -1.307996    0.046029
      4          6           0        0.518157   -1.325328    0.047721
      5          6           0       -0.268712   -2.609981    0.125259
      6          6           0       -0.026278   -0.060265   -0.023904
      7          6           0        0.734811    1.114167   -0.088889
      8          6           0        2.110521    1.119509   -0.100927
      9          6           0       -0.560718    1.891067   -0.097326
     10          8           0       -0.964597    3.019072   -0.011554
     11          7           0       -1.294870    0.640100   -0.160040
     12          6           0       -2.528408    0.431295    0.577450
     13          6           0       -3.392456   -0.584786   -0.045832
     14          7           0       -4.068812   -1.402991   -0.514942
     15          1           0        4.669515    0.187230   -0.937248
     16          1           0        4.676741    0.282681    0.824800
     17          1           0        4.574761   -1.292217    0.026948
     18          1           0        2.449321   -2.269049    0.093880
     19          1           0        0.326420   -3.450896   -0.241925
     20          1           0       -0.559802   -2.841859    1.157143
     21          1           0       -1.184831   -2.557845   -0.469925
     22          1           0        2.697778    2.031392   -0.153281
     23          1           0       -2.348891    0.137784    1.623720
     24          1           0       -3.061314    1.388868    0.587300
 ---------------------------------------------------------------------

 SCF Done:  E(RB3LYP) =  -609.900590873     A.U. after   17 cycles

 Excitation energies and oscillator strengths:

 Excited State   1:      Triplet-A      2.7971 eV  443.26 nm  f=0.0000  <S**2>=2.000
      48 -> 50         0.15542
      49 -> 50         0.67046
      49 -> 51         0.13225
 This state for optimization and/or second-order correction.
 Total Energy, E(TD-HF/TD-DFT) =  -609.797798866
 Copying the excited state density for this state as the 1-particle RhoCI density.

 Excited State   2:      Triplet-A      3.4358 eV  360.86 nm  f=0.0000  <S**2>=2.000
      48 -> 50         0.52467
      48 -> 51        -0.10776
      49 -> 50        -0.21580
      49 -> 51         0.35858

 Excited State   3:      Singlet-A      3.4676 eV  357.55 nm  f=0.0078  <S**2>=0.000
      49 -> 50         0.69735

 Excited State   4:      Triplet-A      3.9195 eV  316.32 nm  f=0.0000  <S**2>=2.000
      48 -> 50        -0.41888
      49 -> 51         0.54309
      49 -> 52        -0.11223

 Excited State   5:      Singlet-A      4.6447 eV  266.94 nm  f=0.0009  <S**2>=0.000
      47 -> 50         0.63626
      48 -> 50         0.19776
      49 -> 51         0.16890

 Excited State   6:      Singlet-A      4.7266 eV  262.31 nm  f=0.0006  <S**2>=0.000
      46 -> 50        -0.13557
      47 -> 50        -0.25169
      48 -> 50         0.46082
      49 -> 51         0.43025

 The electronic state is 1-A.
 Alpha  occ. eigenvalues --  -19.18009 -14.39557 -14.35899 -10.33411 -10.29148
 Alpha  occ. eigenvalues --  -10.25329 -10.25031 -10.23081 -10.22544 -10.22495
 Alpha  occ. eigenvalues --  -10.22154 -10.21954 -10.20487 -10.20295  -1.08888
 Alpha  occ. eigenvalues --   -1.00146  -0.92564  -0.88163  -0.82713  -0.80747
 Alpha  occ. eigenvalues --   -0.75402  -0.71472  -0.68836  -0.66693  -0.60021
 Alpha  occ. eigenvalues --   -0.56709  -0.55518  -0.53367  -0.51642  -0.49304
 Alpha  occ. eigenvalues --   -0.48212  -0.46109  -0.45441  -0.44411  -0.43824
 Alpha  occ. eigenvalues --   -0.43232  -0.43151  -0.41717  -0.39704  -0.38200
 Alpha  occ. eigenvalues --   -0.37724  -0.37240  -0.36846  -0.35376  -0.34799
 Alpha  occ. eigenvalues --   -0.32051  -0.29985  -0.27723  -0.23699
 Alpha virt. eigenvalues --   -0.07827  -0.03107  -0.01067  -0.00190   0.00299
 Alpha virt. eigenvalues --    0.01085   0.01220   0.01835   0.02369   0.02984
 Alpha virt. eigenvalues --    0.03202   0.03815   0.04964   0.05097   0.05669

 Mulliken charges:
               1
     1  C   -0.446222
     2  C    0.302816
     3  C   -0.323217
     4  C    0.499672
     5  C   -0.747795
     6  C   -0.144608
     7  C    0.198702
     8  C   -0.329858
     9  C    0.311243
    10  O   -0.478650
    11  N   -0.201110
    12  C   -0.158699
    13  C    0.352615
    14  N   -0.493353
    15  H    0.167775
    16  H    0.167132
    17  H    0.151021
    18  H    0.122103
    19  H    0.157668
    20  H    0.168272
    21  H    0.181344
    22  H    0.148058
    23  H    0.181385
    24  H    0.213708
 Sum of Mulliken charges =  -0.00000

 Dipole moment (field-independent basis, Debye):
    X=              4.1714    Y=             -1.2013    Z=              2.1289  Tot=              4.8349
 Quadrupole moment (field-independent basis, Debye-Ang):
   XX=            -86.7738   YY=            -90.2545   ZZ=            -82.8929
   XY=             -6.3136   XZ=             -7.4108   YZ=             -1.4328

 Normal termination of Gaussian 16 at Tue Jul 29 21:39:30 2025.
