 Gaussian 16, Revision C.02,
 Gaussian 16:  ES64L-G16RevC.02  7-Dec-2021

 ----------------------------------------------------------
 # td=(50-50,nstates=3) b3lyp/6-31+g(d,p) geom=connectivity
 ----------------------------------------------------------

 -------------------
 Title Card Required
 -------------------
 Symbolic Z-matrix:
 Charge =  0 Multiplicity = 1

                         Standard orientation:
 ---------------------------------------------------------------------
 Center     Atomic      Atomic             Coordinates (Angstroms)
 Number     Number       Type             X           Y           Z
 ---------------------------------------------------------------------
      1          6           0       -3.139765    1.995364   -0.500741
      2          6           0       -1.739329    1.529690   -0.100675
      3          7           0       -1.463945    0.108893   -0.356065
      4          6           0       -2.545189   -0.850787   -0.106126
      5          6           0       -2.731543   -1.230381    1.370166
      6          6           0       -0.139358   -0.324432   -0.268121
      7          6           0        0.214805   -1.682597   -0.474378
      8          6           0        1.541188   -2.102999   -0.444639
      9          6           0        2.583591   -1.208874   -0.200789
     10          6           0        2.251958    0.133935    0.025215
     11          6           0        3.289452    1.089772    0.299423
     12          7           0        4.129442    1.864585    0.521625
     13          6           0        0.918287    0.572792    0.002495
     14          1           0       -3.179659    3.085686   -0.413233
     15          1           0       -3.366508    1.733082   -1.539335
     16          1           0       -3.926895    1.591019    0.142309
     17          1           0       -1.558483    1.785851    0.957642
     18          1           0       -1.022289    2.108174   -0.690442
     19          1           0       -3.468550   -0.422491   -0.498762
     20          1           0       -2.370749   -1.745900   -0.707646
     21          1           0       -3.552578   -1.948162    1.477111
     22          1           0       -1.825434   -1.686156    1.781304
     23          1           0       -2.972509   -0.351562    1.977882
     24          1           0       -0.549123   -2.423454   -0.671508
     25          1           0        1.762618   -3.152131   -0.617098
     26          1           0        3.617225   -1.533659   -0.177431
     27          1           0        0.729865    1.616460    0.209304
 ---------------------------------------------------------------------

 SCF Done:  E(RB3LYP) =  -537.124797307     A.U. after   16 cycles

 Excitation energies and oscillator strengths:

 Excited State   1:      Triplet-A      2.9498 eV  420.32 nm  f=0.0000  <S**2>=2.000
      46 -> 48        -0.16298
      47 -> 48         0.66390
      47 -> 49        -0.12884
 This state for optimization and/or second-order correction.
 Total Energy, E(TD-HF/TD-DFT) =  -537.016395209
 Copying the excited state density for this state as the 1-particle RhoCI density.

 Excited State   2:      Triplet-A      3.4802 eV  356.26 nm  f=0.0000  <S**2>=2.000
      45 -> 49        -0.11913
      46 -> 48         0.41332
      46 -> 49         0.11290
      47 -> 48         0.21405
      47 -> 49         0.49363

 Excited State   3:      Singlet-A      3.8351 eV  323.29 nm  f=0.0479  <S**2>=0.000
      46 -> 49        -0.11563
      47 -> 48         0.68944

 Excited State   4:      Triplet-A      3.9698 eV  312.32 nm  f=0.0000  <S**2>=2.000
      46 -> 48         0.52492
      47 -> 49        -0.45791

 Excited State   5:      Singlet-A      4.8050 eV  258.03 nm  f=0.0090  <S**2>=0.000
      47 -> 49        -0.11979
      47 -> 50         0.68985

 Excited State   6:      Singlet-A      4.9005 eV  253.00 nm  f=0.1483  <S**2>=0.000
      46 -> 48         0.23531
      47 -> 49         0.63119
      47 -> 50         0.11721

 The electronic state is 1-A.
 Alpha  occ. eigenvalues --  -14.37062 -14.33966 -10.25322 -10.23994 -10.23763
 Alpha  occ. eigenvalues --  -10.23603 -10.23155 -10.21185 -10.21161 -10.20846
 Alpha  occ. eigenvalues --  -10.20817 -10.20123 -10.19502  -0.96413  -0.90849
 Alpha  occ. eigenvalues --   -0.86890  -0.79164  -0.78309  -0.77390  -0.73177
 Alpha  occ. eigenvalues --   -0.67316  -0.64391  -0.64055  -0.59316  -0.55753
 Alpha  occ. eigenvalues --   -0.51507  -0.50205  -0.49965  -0.48104  -0.45742
 Alpha  occ. eigenvalues --   -0.44905  -0.44040  -0.42614  -0.40940  -0.40382
 Alpha  occ. eigenvalues --   -0.39512  -0.38885  -0.38493  -0.37900  -0.36644
 Alpha  occ. eigenvalues --   -0.36331  -0.35397  -0.34972  -0.33279  -0.30078
 Alpha  occ. eigenvalues --   -0.26717  -0.21502
 Alpha virt. eigenvalues --   -0.05316  -0.01743  -0.01161   0.00508   0.00845
 Alpha virt. eigenvalues --    0.01232   0.02303   0.02788   0.03420   0.03716
 Alpha virt. eigenvalues --    0.04359   0.04633   0.05362   0.05624   0.06570

 Mulliken charges:
               1
     1  C   -0.664203
     2  C    0.099595
     3  N   -0.024220
     4  C   -0.186337
     5  C   -0.448441
     6  C   -0.639952
     7  C    0.141916
     8  C   -0.097058
     9  C   -0.205891
    10  C    0.058267
    11  C   -0.228579
    12  N   -0.536015
    13  C    0.746766
    14  H    0.154778
    15  H    0.165354
    16  H    0.152618
    17  H    0.145328
    18  H    0.137719
    19  H    0.144206
    20  H    0.127748
    21  H    0.145877
    22  H    0.159537
    23  H    0.145717
    24  H    0.105920
    25  H    0.130087
    26  H    0.142119
    27  H    0.127147
 Sum of Mulliken charges =  -0.00000

 Dipole moment (field-independent basis, Debye):
    X=             -5.8984    Y=             -2.4325    Z=             -0.5313  Tot=              6.4023
 Quadrupole moment (field-independent basis, Debye-Ang):
   XX=            -92.0472   YY=            -77.6613   ZZ=            -83.0414
   XY=            -13.6896   XZ=             -3.4110   YZ=             -0.6396

 Normal termination of Gaussian 16 at Tue Jul 29 21:38:54 2025.
