 Gaussian 16, Revision C.02,
 Gaussian 16:  ES64L-G16RevC.02  7-Dec-2021

 ----------------------------------------------------------
 # td=(50-50,nstates=3) b3lyp/6-31+g(d,p) geom=connectivity
 ----------------------------------------------------------

 -------------------
 Title Card Required
 -------------------
 Symbolic Z-matrix:
 Charge =  0 Multiplicity = 1

                         Standard orientation:
 ---------------------------------------------------------------------
 Center     Atomic      Atomic             Coordinates (Angstroms)
 Number     Number       Type             X           Y           Z
 ---------------------------------------------------------------------
      1          6           0       -3.487719    2.556348    0.000117
      2          6           0       -3.056893    1.107330    0.000030
      3          6           0       -3.995220    0.067756   -0.000062
      4          6           0       -3.586853   -1.271329   -0.000124
      5          6           0       -2.233670   -1.594951   -0.000097
      6          6           0       -1.278686   -0.563666   -0.000005
      7          6           0        0.158817   -0.872722    0.000021
      8          7           0        0.630954   -2.100108   -0.000049
      9          8           0        2.028155   -1.915191    0.000070
     10          6           0        2.232100   -0.584419    0.000094
     11          6           0        3.666588   -0.156412    0.000215
     12         17           0        3.866494    1.624058   -0.000192
     13          7           0        1.139936    0.109064    0.000096
     14          6           0       -1.695015    0.773860    0.000057
     15          1           0       -4.577555    2.647873   -0.000113
     16          1           0       -3.106411    3.083399    0.882293
     17          1           0       -3.106016    3.083626   -0.881752
     18          1           0       -5.056068    0.305169   -0.000087
     19          1           0       -4.330871   -2.062612   -0.000198
     20          1           0       -1.910426   -2.630368   -0.000149
     21          1           0        4.168422   -0.551954    0.886246
     22          1           0        4.168700   -0.552405   -0.885455
     23          1           0       -0.942353    1.556349    0.000125
 ---------------------------------------------------------------------

 SCF Done:  E(RB3LYP) =  -1031.41142627     A.U. after   15 cycles

 Excitation energies and oscillator strengths:

 Excited State   1:      Triplet-A      3.1578 eV  392.62 nm  f=0.0000  <S**2>=2.000
      53 -> 55         0.23567
      53 -> 56        -0.19421
      53 -> 58        -0.11865
      54 -> 55         0.58310
      54 -> 58         0.15655
 This state for optimization and/or second-order correction.
 Total Energy, E(TD-HF/TD-DFT) =  -1031.29537769
 Copying the excited state density for this state as the 1-particle RhoCI density.

 Excited State   2:      Triplet-A      3.9768 eV  311.77 nm  f=0.0000  <S**2>=2.000
      53 -> 55         0.59663
      53 -> 56        -0.18862
      54 -> 55        -0.26607
      54 -> 58        -0.15668

 Excited State   3:      Triplet-A      4.0791 eV  303.95 nm  f=0.0000  <S**2>=2.000
      50 -> 55        -0.13062
      51 -> 55         0.25939
      53 -> 56         0.43469
      53 -> 58         0.24711
      54 -> 55         0.17492
      54 -> 58        -0.30416

 Excited State   4:      Singlet-A      4.6001 eV  269.53 nm  f=0.0179  <S**2>=0.000
      53 -> 55         0.48365
      54 -> 55        -0.44178
      54 -> 56         0.18662
      54 -> 58         0.13727

 Excited State   5:      Singlet-A      4.8701 eV  254.58 nm  f=0.1745  <S**2>=0.000
      53 -> 55         0.37316
      54 -> 55         0.52640
      54 -> 56         0.26491

 Excited State   6:      Singlet-A      5.4769 eV  226.38 nm  f=0.2385  <S**2>=0.000
      53 -> 55        -0.30111
      53 -> 58         0.27343
      54 -> 56         0.55492

 The electronic state is 1-A.
 Alpha  occ. eigenvalues -- -101.56239 -19.26805 -14.40550 -14.36352 -10.32107
 Alpha  occ. eigenvalues --  -10.28954 -10.27714 -10.22045 -10.21326 -10.20479
 Alpha  occ. eigenvalues --  -10.20415 -10.20377 -10.20275 -10.19358  -9.47753
 Alpha  occ. eigenvalues --   -7.24226  -7.23137  -7.23134  -1.18301  -0.96174
 Alpha  occ. eigenvalues --   -0.91089  -0.87455  -0.86333  -0.78748  -0.76806
 Alpha  occ. eigenvalues --   -0.73854  -0.69702  -0.66545  -0.63075  -0.60974
 Alpha  occ. eigenvalues --   -0.58370  -0.53888  -0.52651  -0.50630  -0.48056
 Alpha  occ. eigenvalues --   -0.47453  -0.46589  -0.45029  -0.44258  -0.42916
 Alpha  occ. eigenvalues --   -0.42754  -0.41945  -0.39442  -0.38518  -0.36458
 Alpha  occ. eigenvalues --   -0.35499  -0.35305  -0.34667  -0.32822  -0.32348
 Alpha  occ. eigenvalues --   -0.30987  -0.30835  -0.25979  -0.25155
 Alpha virt. eigenvalues --   -0.06189  -0.02961  -0.01892  -0.01533  -0.00083
 Alpha virt. eigenvalues --    0.00731   0.01881   0.02836   0.03517   0.04104
 Alpha virt. eigenvalues --    0.04523   0.04634   0.05546   0.05666   0.06081

 Mulliken charges:
               1
     1  C   -0.593542
     2  C    0.013622
     3  C   -0.573361
     4  C   -0.393092
     5  C   -0.264481
     6  C    0.558269
     7  C    0.716984
     8  N   -0.664344
     9  O    0.164815
    10  C    0.242606
    11  C   -0.626695
    12  Cl   0.022089
    13  N   -0.181823
    14  C    0.104418
    15  H    0.147431
    16  H    0.167496
    17  H    0.167491
    18  H    0.122365
    19  H    0.129673
    20  H    0.146806
    21  H    0.220766
    22  H    0.220760
    23  H    0.151746
 Sum of Mulliken charges =  -0.00000

 Dipole moment (field-independent basis, Debye):
    X=             -0.3233    Y=              0.3031    Z=              0.0006  Tot=              0.4432
 Quadrupole moment (field-independent basis, Debye-Ang):
   XX=            -72.5409   YY=            -92.1570   ZZ=            -90.2177
   XY=             -5.9225   XZ=              0.0022   YZ=              0.0003

 Normal termination of Gaussian 16 at Wed Sep 17 06:05:04 2025.
