 Gaussian 16, Revision C.02,
 Gaussian 16:  ES64L-G16RevC.02  7-Dec-2021

 ----------------------------------------------------------
 # td=(50-50,nstates=3) b3lyp/6-31+g(d,p) geom=connectivity
 ----------------------------------------------------------

 -------------------
 Title Card Required
 -------------------
 Symbolic Z-matrix:
 Charge =  0 Multiplicity = 1

                         Standard orientation:
 ---------------------------------------------------------------------
 Center     Atomic      Atomic             Coordinates (Angstroms)
 Number     Number       Type             X           Y           Z
 ---------------------------------------------------------------------
      1          6           0       -1.753060    1.633330    0.627653
      2          7           0       -1.061656    0.623732   -0.178713
      3          6           0       -1.485076   -0.769137   -0.012550
      4          6           0       -2.943881   -0.913088   -0.022954
      5          7           0       -4.095228   -1.057562   -0.027882
      6          7           0        0.270090    0.877698   -0.276907
      7          6           0        1.141366   -0.035267   -0.504749
      8          6           0        2.581236    0.387621   -0.698933
      9          6           0        3.496713   -0.342262    0.188584
     10          7           0        4.206699   -0.937295    0.888832
     11          1           0       -1.352245    2.607096    0.346750
     12          1           0       -2.822108    1.605518    0.411246
     13          1           0       -1.595944    1.479886    1.705846
     14          1           0       -1.096066   -1.362586   -0.847486
     15          1           0       -1.091230   -1.210715    0.920581
     16          1           0        0.925478   -1.101620   -0.592969
     17          1           0        2.902256    0.207190   -1.734244
     18          1           0        2.666729    1.462040   -0.509336
 ---------------------------------------------------------------------

 SCF Done:  E(RB3LYP) =  -452.397536863     A.U. after   15 cycles

 Excitation energies and oscillator strengths:

 Excited State   1:      Triplet-A      3.4796 eV  356.32 nm  f=0.0000  <S**2>=2.000
      28 -> 37        -0.11992
      36 -> 37         0.67755
 This state for optimization and/or second-order correction.
 Total Energy, E(TD-HF/TD-DFT) =  -452.269664556
 Copying the excited state density for this state as the 1-particle RhoCI density.

 Excited State   2:      Triplet-A      4.9437 eV  250.79 nm  f=0.0000  <S**2>=2.000
      35 -> 37         0.67757

 Excited State   3:      Triplet-A      5.3669 eV  231.02 nm  f=0.0000  <S**2>=2.000
      36 -> 38         0.50280
      36 -> 39        -0.48090

 Excited State   4:      Singlet-A      5.4291 eV  228.37 nm  f=0.1717  <S**2>=0.000
      36 -> 37         0.56406
      36 -> 38         0.40728

 Excited State   5:      Singlet-A      5.6085 eV  221.06 nm  f=0.0811  <S**2>=0.000
      36 -> 37         0.32190
      36 -> 38        -0.42136
      36 -> 39         0.45113

 Excited State   6:      Singlet-A      5.7621 eV  215.17 nm  f=0.0749  <S**2>=0.000
      36 -> 37        -0.21528
      36 -> 38         0.37871
      36 -> 39         0.53540

 The electronic state is 1-A.
 Alpha  occ. eigenvalues --  -14.42377 -14.40820 -14.36993 -14.35526 -10.29773
 Alpha  occ. eigenvalues --  -10.26285 -10.26210 -10.26131 -10.24916 -10.23944
 Alpha  occ. eigenvalues --   -1.05338  -0.93811  -0.92386  -0.89317  -0.81211
 Alpha  occ. eigenvalues --   -0.78635  -0.70188  -0.61957  -0.57758  -0.55500
 Alpha  occ. eigenvalues --   -0.53344  -0.52884  -0.49561  -0.46485  -0.45385
 Alpha  occ. eigenvalues --   -0.44946  -0.42215  -0.39501  -0.39033  -0.37689
 Alpha  occ. eigenvalues --   -0.36926  -0.35646  -0.34806  -0.34388  -0.31021
 Alpha  occ. eigenvalues --   -0.25744
 Alpha virt. eigenvalues --   -0.04143  -0.01924  -0.01492  -0.00205   0.00135
 Alpha virt. eigenvalues --    0.00857   0.01226   0.01544   0.02343   0.03200
 Alpha virt. eigenvalues --    0.04099   0.04603   0.04749   0.05644   0.07017

 Mulliken charges:
               1
     1  C   -0.370215
     2  N    0.224137
     3  C   -0.139947
     4  C    0.257676
     5  N   -0.521295
     6  N   -0.270304
     7  C    0.135086
     8  C   -0.459565
     9  C    0.246836
    10  N   -0.501367
    11  H    0.173084
    12  H    0.170168
    13  H    0.149477
    14  H    0.179884
    15  H    0.191238
    16  H    0.125611
    17  H    0.200412
    18  H    0.209084
 Sum of Mulliken charges =  -0.00000

 Dipole moment (field-independent basis, Debye):
    X=             -0.0339    Y=              1.3997    Z=             -1.6649  Tot=              2.1753
 Quadrupole moment (field-independent basis, Debye-Ang):
   XX=            -93.4589   YY=            -59.0851   ZZ=            -59.7621
   XY=              1.6194   XZ=            -11.2715   YZ=              3.3581

 Normal termination of Gaussian 16 at Tue Jul 29 21:40:08 2025.
