 Gaussian 16, Revision C.02,
 Gaussian 16:  ES64L-G16RevC.02  7-Dec-2021

 ----------------------------------------------------------
 # td=(50-50,nstates=3) b3lyp/6-31+g(d,p) geom=connectivity
 ----------------------------------------------------------

 -------------------
 Title Card Required
 -------------------
 Symbolic Z-matrix:
 Charge =  0 Multiplicity = 1

                         Standard orientation:
 ---------------------------------------------------------------------
 Center     Atomic      Atomic             Coordinates (Angstroms)
 Number     Number       Type             X           Y           Z
 ---------------------------------------------------------------------
      1          6           0        4.355637    0.524108   -1.066981
      2          6           0        3.630779   -0.239780   -0.229946
      3          6           0        4.281564   -0.991171    0.814130
      4          7           0        4.794637   -1.588697    1.669977
      5          6           0        2.161570   -0.371748   -0.310169
      6          6           0        1.163355    0.528461   -0.274852
      7          6           0        1.296028    2.031236   -0.146520
      8          6           0        0.456292    2.772205   -1.205499
      9          6           0        0.988222    2.548034    1.277403
     10          6           0       -0.132598   -0.249108   -0.442018
     11          6           0       -1.224254   -0.047198    0.649464
     12          6           0       -2.477531   -0.821643    0.375698
     13          6           0       -3.705240   -0.267064    0.228045
     14          6           0       -4.867269   -1.076882   -0.019495
     15          7           0       -5.808832   -1.729173   -0.218971
     16          6           0       -3.918385    1.154144    0.307176
     17          7           0       -4.069544    2.305799    0.367874
     18          6           0        0.355527   -1.700013   -0.497320
     19          8           0       -0.285994   -2.714974   -0.580566
     20          8           0        1.725133   -1.702241   -0.422253
     21          1           0        3.880079    1.065396   -1.877293
     22          1           0        5.431004    0.611439   -0.957288
     23          1           0        2.347769    2.268605   -0.336949
     24          1           0        0.639201    3.849539   -1.144399
     25          1           0        0.707262    2.444852   -2.220174
     26          1           0       -0.617985    2.618092   -1.054996
     27          1           0        1.229864    3.614266    1.340626
     28          1           0        1.585241    2.021209    2.028068
     29          1           0       -0.067369    2.440545    1.542560
     30          1           0       -0.584156   -0.018663   -1.417743
     31          1           0       -1.451658    1.016806    0.731095
     32          1           0       -0.817210   -0.370760    1.616903
     33          1           0       -2.391167   -1.900602    0.285287
 ---------------------------------------------------------------------

 SCF Done:  E(RB3LYP) =  -894.072451702     A.U. after   16 cycles

 Excitation energies and oscillator strengths:

 Excited State   1:      Triplet-A      2.9086 eV  426.27 nm  f=0.0000  <S**2>=2.000
      67 -> 72         0.29263
      68 -> 72        -0.12895
      69 -> 72         0.12355
      70 -> 72         0.57898
      70 -> 73         0.10269
 This state for optimization and/or second-order correction.
 Total Energy, E(TD-HF/TD-DFT) =  -893.965563067
 Copying the excited state density for this state as the 1-particle RhoCI density.

 Excited State   2:      Triplet-A      2.9419 eV  421.45 nm  f=0.0000  <S**2>=2.000
      68 -> 71         0.28907
      69 -> 71         0.62817
      70 -> 71        -0.11016
      69 <- 71         0.11269

 Excited State   3:      Triplet-A      3.5804 eV  346.29 nm  f=0.0000  <S**2>=2.000
      67 -> 72         0.40576
      68 -> 72        -0.23299
      69 -> 72         0.13820
      70 -> 71         0.16890
      70 -> 72        -0.18051
      70 -> 73        -0.35864
      70 -> 76         0.16395

 Excited State   4:      Singlet-A      3.9372 eV  314.91 nm  f=0.0093  <S**2>=0.000
      70 -> 71         0.70498

 Excited State   5:      Singlet-A      4.1587 eV  298.13 nm  f=0.0881  <S**2>=0.000
      70 -> 72         0.68969

 Excited State   6:      Singlet-A      4.7939 eV  258.63 nm  f=0.0110  <S**2>=0.000
      67 -> 71         0.20132
      68 -> 71         0.57065
      69 -> 71        -0.33898

 The electronic state is 1-A.
 Alpha  occ. eigenvalues --  -19.24915 -19.18929 -14.38288 -14.37525 -14.37060
 Alpha  occ. eigenvalues --  -10.36338 -10.30641 -10.30374 -10.28897 -10.27989
 Alpha  occ. eigenvalues --  -10.27521 -10.26922 -10.26751 -10.26133 -10.25977
 Alpha  occ. eigenvalues --  -10.25964 -10.24927 -10.24258 -10.21403 -10.21148
 Alpha  occ. eigenvalues --   -1.15952  -1.07878  -0.95462  -0.93832  -0.93772
 Alpha  occ. eigenvalues --   -0.89752  -0.87971  -0.86196  -0.82646  -0.78605
 Alpha  occ. eigenvalues --   -0.75272  -0.72082  -0.69747  -0.67319  -0.65744
 Alpha  occ. eigenvalues --   -0.62863  -0.61542  -0.59919  -0.57610  -0.53452
 Alpha  occ. eigenvalues --   -0.52755  -0.51936  -0.50423  -0.49291  -0.47993
 Alpha  occ. eigenvalues --   -0.47141  -0.46018  -0.45196  -0.44608  -0.44084
 Alpha  occ. eigenvalues --   -0.43386  -0.42587  -0.42109  -0.41442  -0.40971
 Alpha  occ. eigenvalues --   -0.40441  -0.39552  -0.39304  -0.38897  -0.38489
 Alpha  occ. eigenvalues --   -0.37938  -0.37920  -0.37638  -0.36975  -0.36498
 Alpha  occ. eigenvalues --   -0.36190  -0.32359  -0.31530  -0.30953  -0.27661
 Alpha virt. eigenvalues --   -0.10985  -0.09870  -0.06006  -0.03375  -0.02579
 Alpha virt. eigenvalues --   -0.02075  -0.00895  -0.00520  -0.00023   0.00491
 Alpha virt. eigenvalues --    0.00621   0.01040   0.01550   0.02074   0.02261

 Mulliken charges:
               1
     1  C   -0.275810
     2  C    0.066683
     3  C    0.023028
     4  N   -0.489527
     5  C    0.785488
     6  C   -0.509642
     7  C    0.221107
     8  C   -0.527612
     9  C   -0.583555
    10  C   -0.125609
    11  C   -0.290257
    12  C    0.386145
    13  C    0.823446
    14  C   -0.010346
    15  N   -0.473719
    16  C   -0.386927
    17  N   -0.473298
    18  C    0.386228
    19  O   -0.451997
    20  O   -0.229430
    21  H    0.158594
    22  H    0.173029
    23  H    0.128351
    24  H    0.158114
    25  H    0.150404
    26  H    0.160445
    27  H    0.156866
    28  H    0.156782
    29  H    0.145003
    30  H    0.199466
    31  H    0.163702
    32  H    0.186311
    33  H    0.198537
 Sum of Mulliken charges =  -0.00000

 Dipole moment (field-independent basis, Debye):
    X=              4.4679    Y=              5.1174    Z=             -2.0170  Tot=              7.0865
 Quadrupole moment (field-independent basis, Debye-Ang):
   XX=           -157.2640   YY=           -137.2720   ZZ=           -117.6029
   XY=             14.6843   XZ=            -16.3009   YZ=             -1.8257

 Normal termination of Gaussian 16 at Tue Jul 29 21:43:12 2025.
