 Gaussian 16, Revision C.02,
 Gaussian 16:  ES64L-G16RevC.02  7-Dec-2021

 ----------------------------------------------------------
 # td=(50-50,nstates=3) b3lyp/6-31+g(d,p) geom=connectivity
 ----------------------------------------------------------

 -------------------
 Title Card Required
 -------------------
 Symbolic Z-matrix:
 Charge =  0 Multiplicity = 1

                         Standard orientation:
 ---------------------------------------------------------------------
 Center     Atomic      Atomic             Coordinates (Angstroms)
 Number     Number       Type             X           Y           Z
 ---------------------------------------------------------------------
      1          6           0        5.357701    2.242450    0.459155
      2          6           0        4.856057    1.105589   -0.438711
      3          6           0        3.558840    0.463877    0.069987
      4          6           0        3.053267   -0.680701   -0.832430
      5          6           0        1.774595   -1.315904   -0.329172
      6          6           0        1.808308   -2.371198    0.596774
      7          6           0        0.626747   -2.930046    1.081056
      8          6           0       -0.614119   -2.447171    0.651985
      9          6           0       -0.669031   -1.396328   -0.267478
     10          6           0       -1.991942   -0.804448   -0.771786
     11          6           0       -3.147624   -1.666484   -0.467352
     12          7           0       -4.067257   -2.334989   -0.229455
     13          6           0       -2.252621    0.622026   -0.264129
     14          6           0       -2.520394    1.649330   -1.174774
     15          6           0       -2.761557    2.951462   -0.725085
     16          6           0       -2.740599    3.233292    0.641846
     17          6           0       -2.476409    2.208273    1.556545
     18          6           0       -2.231593    0.910637    1.106562
     19          6           0        0.526020   -0.844328   -0.749449
     20          1           0        6.283502    2.679677    0.069942
     21          1           0        4.615234    3.045773    0.533089
     22          1           0        5.560076    1.884575    1.475553
     23          1           0        5.633907    0.333686   -0.520955
     24          1           0        4.696241    1.486871   -1.456917
     25          1           0        2.775822    1.230199    0.150592
     26          1           0        3.713837    0.078157    1.086970
     27          1           0        3.835836   -1.446456   -0.909635
     28          1           0        2.895497   -0.292544   -1.846776
     29          1           0        2.767143   -2.760335    0.930690
     30          1           0        0.665702   -3.752151    1.789943
     31          1           0       -1.528935   -2.899708    1.021991
     32          1           0       -1.938615   -0.756079   -1.866981
     33          1           0       -2.545443    1.434053   -2.240268
     34          1           0       -2.966811    3.740039   -1.443155
     35          1           0       -2.929333    4.243116    0.994023
     36          1           0       -2.459965    2.419986    2.621667
     37          1           0       -2.020445    0.120657    1.821584
     38          1           0        0.483681   -0.026563   -1.466440
 ---------------------------------------------------------------------

 SCF Done:  E(RB3LYP) =  -752.161235018     A.U. after   16 cycles

 Excitation energies and oscillator strengths:

 Excited State   1:      Triplet-A      3.6633 eV  338.45 nm  f=0.0000  <S**2>=2.000
      64 -> 69         0.19056
      64 -> 70        -0.16677
      66 -> 68        -0.17352
      66 -> 69         0.18731
      66 -> 70        -0.27351
      66 -> 71         0.24203
      67 -> 68         0.20025
      67 -> 69         0.26932
      67 -> 70        -0.13136
      67 -> 71        -0.27282
 This state for optimization and/or second-order correction.
 Total Energy, E(TD-HF/TD-DFT) =  -752.026610233
 Copying the excited state density for this state as the 1-particle RhoCI density.

 Excited State   2:      Triplet-A      3.6993 eV  335.16 nm  f=0.0000  <S**2>=2.000
      64 -> 68         0.30821
      64 -> 69        -0.11739
      64 -> 70        -0.15321
      65 -> 68         0.16116
      65 -> 69         0.28543
      65 -> 70         0.24651
      65 -> 71         0.17080
      66 -> 68        -0.20157
      67 -> 68        -0.23806
      67 -> 69         0.11599
      67 -> 70         0.12483

 Excited State   3:      Triplet-A      4.4656 eV  277.64 nm  f=0.0000  <S**2>=2.000
      64 -> 71        -0.12236
      66 -> 68         0.16870
      66 -> 69        -0.22713
      66 -> 70         0.31374
      66 -> 71        -0.16431
      67 -> 68         0.10070
      67 -> 69         0.38937
      67 -> 70        -0.28144

 Excited State   4:      Singlet-A      5.0961 eV  243.29 nm  f=0.0022  <S**2>=0.000
      64 -> 71        -0.12182
      66 -> 68         0.24586
      66 -> 69         0.31638
      66 -> 70        -0.10171
      66 -> 71        -0.16414
      67 -> 68         0.29306
      67 -> 69        -0.16799
      67 -> 70         0.35248
      67 -> 71        -0.12331

 Excited State   5:      Singlet-A      5.2222 eV  237.42 nm  f=0.0060  <S**2>=0.000
      64 -> 68        -0.16010
      64 -> 69        -0.16562
      64 -> 70        -0.14820
      65 -> 68         0.37382
      65 -> 69        -0.13105
      65 -> 70        -0.15170
      66 -> 70         0.20084
      66 -> 71         0.14242
      67 -> 68         0.10407
      67 -> 69         0.35408
      67 -> 71         0.16378

 Excited State   6:      Singlet-A      5.4057 eV  229.36 nm  f=0.0178  <S**2>=0.000
      66 -> 68        -0.25805
      67 -> 68         0.54188
      67 -> 70        -0.33309

 The electronic state is 1-A.
 Alpha  occ. eigenvalues --  -14.34420 -10.25734 -10.23684 -10.22466 -10.22198
 Alpha  occ. eigenvalues --  -10.21133 -10.21099 -10.20949 -10.20878 -10.20809
 Alpha  occ. eigenvalues --  -10.20770 -10.20462 -10.20341 -10.20238 -10.20135
 Alpha  occ. eigenvalues --  -10.19830 -10.19202 -10.19099 -10.18251  -0.91593
 Alpha  occ. eigenvalues --   -0.88352  -0.87012  -0.82582  -0.80657  -0.77260
 Alpha  occ. eigenvalues --   -0.76298  -0.75884  -0.72601  -0.71443  -0.65175
 Alpha  occ. eigenvalues --   -0.62697  -0.61809  -0.60490  -0.59904  -0.58617
 Alpha  occ. eigenvalues --   -0.53838  -0.52304  -0.51185  -0.48593  -0.48381
 Alpha  occ. eigenvalues --   -0.47481  -0.46016  -0.45061  -0.44334  -0.43866
 Alpha  occ. eigenvalues --   -0.43637  -0.43031  -0.42608  -0.41174  -0.39313
 Alpha  occ. eigenvalues --   -0.38368  -0.37915  -0.37620  -0.36682  -0.36526
 Alpha  occ. eigenvalues --   -0.35970  -0.35902  -0.35359  -0.34377  -0.33404
 Alpha  occ. eigenvalues --   -0.33316  -0.33162  -0.32836  -0.27222  -0.26955
 Alpha  occ. eigenvalues --   -0.25717  -0.25419
 Alpha virt. eigenvalues --   -0.03477  -0.03089  -0.03016  -0.01659  -0.00600
 Alpha virt. eigenvalues --    0.00490   0.00790   0.01159   0.01817   0.02249
 Alpha virt. eigenvalues --    0.02300   0.02597   0.03080   0.03206   0.03841

 Mulliken charges:
               1
     1  C   -0.689092
     2  C   -0.147593
     3  C   -0.298424
     4  C   -0.404309
     5  C    0.212253
     6  C   -0.131720
     7  C   -0.263111
     8  C   -0.299643
     9  C    0.363205
    10  C    0.292533
    11  C   -0.052815
    12  N   -0.440963
    13  C    0.097859
    14  C   -0.151185
    15  C   -0.222497
    16  C   -0.024246
    17  C   -0.242181
    18  C   -0.063148
    19  C   -0.093508
    20  H    0.145359
    21  H    0.146422
    22  H    0.146436
    23  H    0.136914
    24  H    0.136628
    25  H    0.141630
    26  H    0.140338
    27  H    0.139314
    28  H    0.135881
    29  H    0.119108
    30  H    0.130512
    31  H    0.132891
    32  H    0.169924
    33  H    0.110448
    34  H    0.129727
    35  H    0.128109
    36  H    0.130826
    37  H    0.126798
    38  H    0.111319
 Sum of Mulliken charges =  -0.00000

 Dipole moment (field-independent basis, Debye):
    X=              3.8349    Y=              2.8335    Z=             -0.3661  Tot=              4.7822
 Quadrupole moment (field-independent basis, Debye-Ang):
   XX=           -130.7385   YY=           -115.7356   ZZ=           -108.5525
   XY=            -16.0446   XZ=              0.8140   YZ=             -3.5745

 Normal termination of Gaussian 16 at Tue Jul 29 21:42:55 2025.
