 Gaussian 16, Revision C.02,
 Gaussian 16:  ES64L-G16RevC.02  7-Dec-2021

 ----------------------------------------------------------
 # td=(50-50,nstates=3) b3lyp/6-31+g(d,p) geom=connectivity
 ----------------------------------------------------------

 -------------------
 Title Card Required
 -------------------
 Symbolic Z-matrix:
 Charge =  0 Multiplicity = 1

                         Standard orientation:
 ---------------------------------------------------------------------
 Center     Atomic      Atomic             Coordinates (Angstroms)
 Number     Number       Type             X           Y           Z
 ---------------------------------------------------------------------
      1          6           0       -4.454931    0.462921   -0.000013
      2          6           0       -3.303128   -0.527404   -0.000047
      3          8           0       -2.078159    0.198250    0.000010
      4          6           0       -0.939132   -0.640210    0.000058
      5          6           0        0.321752    0.193197    0.000024
      6          6           0        0.274621    1.593517    0.000030
      7          6           0        1.444007    2.356430    0.000005
      8          6           0        2.690869    1.728351   -0.000025
      9          6           0        2.765295    0.334113   -0.000030
     10          6           0        1.586880   -0.410827   -0.000004
     11         17           0        1.713889   -2.173841   -0.000002
     12          1           0       -5.411398   -0.070525   -0.000079
     13          1           0       -4.415067    1.101625    0.887698
     14          1           0       -4.415020    1.101737   -0.887642
     15          1           0       -3.348318   -1.177926   -0.888753
     16          1           0       -3.348347   -1.178020    0.888591
     17          1           0       -0.949256   -1.299100    0.884168
     18          1           0       -0.949242   -1.299195   -0.883980
     19          1           0       -0.698265    2.071089    0.000048
     20          1           0        1.378719    3.440356    0.000011
     21          1           0        3.605179    2.314139   -0.000045
     22          1           0        3.722763   -0.175417   -0.000055
 ---------------------------------------------------------------------

 SCF Done:  E(RB3LYP) =  -885.026310619     A.U. after   15 cycles

 Excitation energies and oscillator strengths:

 Excited State   1:      Triplet-A      3.6700 eV  337.83 nm  f=0.0000  <S**2>=2.000
      43 -> 47        -0.12951
      44 -> 46         0.22760
      44 -> 47         0.36517
      45 -> 46         0.47559
      45 -> 47        -0.24424
 This state for optimization and/or second-order correction.
 Total Energy, E(TD-HF/TD-DFT) =  -884.891441961
 Copying the excited state density for this state as the 1-particle RhoCI density.

 Excited State   2:      Triplet-A      4.5342 eV  273.44 nm  f=0.0000  <S**2>=2.000
      43 -> 47         0.11947
      44 -> 46         0.28060
      44 -> 47        -0.22667
      45 -> 46         0.32232
      45 -> 47         0.49465

 Excited State   3:      Triplet-A      4.5671 eV  271.47 nm  f=0.0000  <S**2>=2.000
      43 -> 46        -0.11331
      44 -> 46         0.32931
      44 -> 47         0.42175
      45 -> 46        -0.35975
      45 -> 47         0.24854

 Excited State   4:      Singlet-A      5.1849 eV  239.13 nm  f=0.0027  <S**2>=0.000
      44 -> 46        -0.37823
      44 -> 47         0.22112
      45 -> 46         0.27564
      45 -> 47         0.47257

 Excited State   5:      Singlet-A      5.7418 eV  215.93 nm  f=0.0368  <S**2>=0.000
      43 -> 46        -0.10187
      44 -> 46         0.15279
      44 -> 47         0.30963
      45 -> 46         0.51806
      45 -> 47        -0.30696

 Excited State   6:      Singlet-A      5.8636 eV  211.45 nm  f=0.0000  <S**2>=0.000
      45 -> 48         0.66627
      45 -> 49         0.12597
      45 -> 51        -0.13905

 The electronic state is 1-A.
 Alpha  occ. eigenvalues -- -101.55707 -19.16703 -10.25863 -10.24989 -10.24382
 Alpha  occ. eigenvalues --  -10.21799 -10.20878 -10.20534 -10.20222 -10.20064
 Alpha  occ. eigenvalues --  -10.18647  -9.47212  -7.23602  -7.22658  -7.22628
 Alpha  occ. eigenvalues --   -1.04886  -0.89749  -0.84003  -0.79300  -0.75524
 Alpha  occ. eigenvalues --   -0.74038  -0.68468  -0.62882  -0.60426  -0.59567
 Alpha  occ. eigenvalues --   -0.52214  -0.50811  -0.49675  -0.47037  -0.45962
 Alpha  occ. eigenvalues --   -0.44741  -0.44463  -0.43227  -0.39513  -0.39231
 Alpha  occ. eigenvalues --   -0.39136  -0.36542  -0.36406  -0.36071  -0.33775
 Alpha  occ. eigenvalues --   -0.33349  -0.31681  -0.27452  -0.26013  -0.24905
 Alpha virt. eigenvalues --   -0.02225  -0.02034   0.00110   0.00484   0.01503
 Alpha virt. eigenvalues --    0.02552   0.03184   0.03455   0.03662   0.05038
 Alpha virt. eigenvalues --    0.05537   0.06233   0.06236   0.07345   0.07698

 Mulliken charges:
               1
     1  C   -0.660265
     2  C    0.188025
     3  O   -0.313435
     4  C   -1.297464
     5  C    0.492880
     6  C    0.647984
     7  C   -0.159397
     8  C    0.025528
     9  C   -0.140914
    10  C   -0.614762
    11  Cl   0.281904
    12  H    0.144734
    13  H    0.160050
    14  H    0.160050
    15  H    0.118757
    16  H    0.118754
    17  H    0.146522
    18  H    0.146518
    19  H    0.153656
    20  H    0.128500
    21  H    0.129268
    22  H    0.143107
 Sum of Mulliken charges =  -0.00000

 Dipole moment (field-independent basis, Debye):
    X=             -0.9975    Y=              0.4613    Z=             -0.0000  Tot=              1.0990
 Quadrupole moment (field-independent basis, Debye-Ang):
   XX=            -64.4895   YY=            -71.8678   ZZ=            -76.4241
   XY=              5.6012   XZ=             -0.0000   YZ=             -0.0000

 Normal termination of Gaussian 16 at Tue Oct  7 11:44:11 2025.
