 Gaussian 16, Revision C.02,
 Gaussian 16:  ES64L-G16RevC.02  7-Dec-2021

 ----------------------------------------------------------
 # td=(50-50,nstates=3) b3lyp/6-31+g(d,p) geom=connectivity
 ----------------------------------------------------------

 -------------------
 Title Card Required
 -------------------
 Symbolic Z-matrix:
 Charge =  0 Multiplicity = 1

                         Standard orientation:
 ---------------------------------------------------------------------
 Center     Atomic      Atomic             Coordinates (Angstroms)
 Number     Number       Type             X           Y           Z
 ---------------------------------------------------------------------
      1          6           0        4.176213    0.294093    1.266440
      2          6           0        3.703450   -0.516569    0.048269
      3          6           0        4.203247    0.109802   -1.264138
      4          6           0        2.176365   -0.766636    0.049862
      5          6           0        1.301709    0.489204   -0.060025
      6          6           0       -0.202461    0.270457   -0.032555
      7          6           0       -0.796686   -0.999131    0.002682
      8          6           0       -2.183841   -1.149086    0.019404
      9          6           0       -3.014144   -0.018484    0.001337
     10          6           0       -4.440862   -0.166345    0.019227
     11          7           0       -5.599004   -0.285051    0.033663
     12          6           0       -2.433581    1.263007   -0.033248
     13          6           0       -1.050118    1.393457   -0.049396
     14          1           0        5.270504    0.332294    1.304707
     15          1           0        3.817720    1.329475    1.231844
     16          1           0        3.825373   -0.151483    2.204573
     17          1           0        4.163937   -1.511993    0.125967
     18          1           0        3.870391   -0.466473   -2.135304
     19          1           0        5.298177    0.142451   -1.285145
     20          1           0        3.846640    1.139192   -1.386399
     21          1           0        1.941520   -1.444149   -0.782105
     22          1           0        1.917988   -1.305489    0.971545
     23          1           0        1.550858    1.184106    0.752129
     24          1           0        1.542646    1.024238   -0.988170
     25          1           0       -0.179148   -1.890087    0.017978
     26          1           0       -2.626017   -2.139656    0.046887
     27          1           0       -3.070201    2.141607   -0.046151
     28          1           0       -0.613113    2.388718   -0.075151
 ---------------------------------------------------------------------

 SCF Done:  E(RB3LYP) =  -521.099998606     A.U. after   15 cycles

 Excitation energies and oscillator strengths:

 Excited State   1:      Triplet-A      3.3658 eV  368.37 nm  f=0.0000  <S**2>=2.000
      46 -> 49         0.28419
      47 -> 48         0.64109
 This state for optimization and/or second-order correction.
 Total Energy, E(TD-HF/TD-DFT) =  -520.976308460
 Copying the excited state density for this state as the 1-particle RhoCI density.

 Excited State   2:      Triplet-A      4.3592 eV  284.42 nm  f=0.0000  <S**2>=2.000
      46 -> 48         0.60062
      46 -> 49        -0.14256
      47 -> 49         0.32740

 Excited State   3:      Triplet-A      4.4508 eV  278.57 nm  f=0.0000  <S**2>=2.000
      46 -> 48         0.15111
      46 -> 49         0.62519
      47 -> 48        -0.27415

 Excited State   4:      Singlet-A      5.0101 eV  247.47 nm  f=0.0037  <S**2>=0.000
      46 -> 48         0.52324
      47 -> 49        -0.47176

 Excited State   5:      Singlet-A      5.3232 eV  232.91 nm  f=0.3573  <S**2>=0.000
      46 -> 49         0.20257
      47 -> 48         0.66892

 Excited State   6:      Singlet-A      6.2559 eV  198.19 nm  f=0.1502  <S**2>=0.000
      46 -> 48         0.33301
      47 -> 49         0.37353
      47 -> 50         0.43593
      47 -> 51        -0.13292
      47 -> 52        -0.15875

 The electronic state is 1-A.
 Alpha  occ. eigenvalues --  -14.34373 -10.24455 -10.23582 -10.22913 -10.22497
 Alpha  occ. eigenvalues --  -10.22493 -10.21583 -10.21554 -10.20842 -10.20552
 Alpha  occ. eigenvalues --  -10.19953 -10.18698 -10.18691  -0.91360  -0.88539
 Alpha  occ. eigenvalues --   -0.83178  -0.80084  -0.77467  -0.74232  -0.69543
 Alpha  occ. eigenvalues --   -0.67570  -0.63710  -0.62180  -0.56968  -0.56098
 Alpha  occ. eigenvalues --   -0.50013  -0.48596  -0.47790  -0.47082  -0.44968
 Alpha  occ. eigenvalues --   -0.44680  -0.43935  -0.42398  -0.40501  -0.39696
 Alpha  occ. eigenvalues --   -0.39010  -0.38248  -0.37052  -0.36915  -0.36361
 Alpha  occ. eigenvalues --   -0.34586  -0.33766  -0.33701  -0.33346  -0.32831
 Alpha  occ. eigenvalues --   -0.28037  -0.26349
 Alpha virt. eigenvalues --   -0.05847  -0.03540  -0.00915   0.00222   0.00387
 Alpha virt. eigenvalues --    0.01530   0.02354   0.02495   0.02769   0.03488
 Alpha virt. eigenvalues --    0.03905   0.04921   0.05253   0.05299   0.05899

 Mulliken charges:
               1
     1  C   -0.539231
     2  C    0.232285
     3  C   -0.547864
     4  C   -0.496368
     5  C   -0.747090
     6  C    0.646852
     7  C   -0.542931
     8  C   -0.366521
     9  C    0.362054
    10  C   -0.115396
    11  N   -0.541381
    12  C   -0.016686
    13  C    0.509615
    14  H    0.146205
    15  H    0.142902
    16  H    0.143232
    17  H    0.131370
    18  H    0.143041
    19  H    0.146471
    20  H    0.143676
    21  H    0.142768
    22  H    0.145336
    23  H    0.161266
    24  H    0.165960
    25  H    0.130093
    26  H    0.145581
    27  H    0.145774
    28  H    0.128987
 Sum of Mulliken charges =  -0.00000

 Dipole moment (field-independent basis, Debye):
    X=              5.8733    Y=              0.4495    Z=             -0.0626  Tot=              5.8908
 Quadrupole moment (field-independent basis, Debye-Ang):
   XX=           -113.4807   YY=            -74.0471   ZZ=            -82.7942
   XY=             -3.3018   XZ=              0.2767   YZ=             -0.2040

 Normal termination of Gaussian 16 at Tue Jul 29 17:50:07 2025.
