 Gaussian 16, Revision C.02,
 Gaussian 16:  ES64L-G16RevC.02  7-Dec-2021

 ----------------------------------------------------------
 # td=(50-50,nstates=3) b3lyp/6-31+g(d,p) geom=connectivity
 ----------------------------------------------------------

 -------------------
 Title Card Required
 -------------------
 Symbolic Z-matrix:
 Charge =  0 Multiplicity = 1

                         Standard orientation:
 ---------------------------------------------------------------------
 Center     Atomic      Atomic             Coordinates (Angstroms)
 Number     Number       Type             X           Y           Z
 ---------------------------------------------------------------------
      1          6           0        0.392273    2.946609   -0.119422
      2          6           0       -0.680511    1.891961    0.044988
      3          6           0       -1.920882    2.290043    0.680061
      4          6           0       -2.984153    1.455164    0.881559
      5          6           0       -2.838893    0.110021    0.432352
      6          7           0       -3.700796   -0.894131    0.501360
      7          8           0       -3.071404   -1.966539   -0.070279
      8          7           0       -1.758012   -1.581587   -0.508743
      9          8           0       -1.033833   -2.428814   -1.041211
     10          6           0       -1.618355   -0.284336   -0.192726
     11          6           0       -0.513425    0.595300   -0.407941
     12          6           0        0.740825    0.102591   -1.117132
     13          6           0        1.595805   -0.760135   -0.233415
     14          6           0        2.883286   -0.507839    0.105317
     15          6           0        3.620472   -1.406487    0.951769
     16          7           0        4.215018   -2.131554    1.639366
     17          6           0        3.584804    0.660443   -0.355263
     18          7           0        4.137888    1.613209   -0.728350
     19          1           0        0.501901    3.247423   -1.168552
     20          1           0        0.141019    3.843855    0.450594
     21          1           0        1.372508    2.603588    0.221866
     22          1           0       -1.996606    3.321486    1.011291
     23          1           0       -3.900311    1.781748    1.359825
     24          1           0        0.442076   -0.513217   -1.975339
     25          1           0        1.311979    0.948777   -1.501075
     26          1           0        1.143162   -1.672399    0.147002
 ---------------------------------------------------------------------

 SCF Done:  E(RB3LYP) =  -831.383021909     A.U. after   18 cycles

 Excitation energies and oscillator strengths:

 Excited State   1:      Triplet-A      1.2895 eV  961.51 nm  f=0.0000  <S**2>=2.000
      62 -> 63         0.70281
      62 -> 64         0.17604
      62 <- 63         0.22077
 This state for optimization and/or second-order correction.
 Total Energy, E(TD-HF/TD-DFT) =  -831.335634682
 Copying the excited state density for this state as the 1-particle RhoCI density.

 Excited State   2:      Triplet-A      2.9460 eV  420.85 nm  f=0.0000  <S**2>=2.000
      58 -> 64         0.15899
      61 -> 63        -0.23622
      61 -> 64         0.59448
      62 -> 64        -0.21864
      61 <- 64         0.10815

 Excited State   3:      Triplet-A      3.1027 eV  399.60 nm  f=0.0000  <S**2>=2.000
      58 -> 63        -0.18852
      59 -> 63         0.15800
      60 -> 63        -0.10554
      61 -> 64         0.22058
      62 -> 63        -0.17552
      62 -> 64         0.54708
      62 -> 65         0.18305

 Excited State   4:      Singlet-A      3.1391 eV  394.97 nm  f=0.0545  <S**2>=0.000
      62 -> 63         0.51847
      62 -> 64        -0.47779

 Excited State   5:      Singlet-A      3.3702 eV  367.89 nm  f=0.0671  <S**2>=0.000
      62 -> 63         0.47052
      62 -> 64         0.51809

 Excited State   6:      Singlet-A      4.1359 eV  299.77 nm  f=0.0007  <S**2>=0.000
      58 -> 63         0.36587
      59 -> 63         0.47746
      59 -> 64         0.10216
      60 -> 63        -0.10495
      61 -> 63        -0.31161

 The electronic state is 1-A.
 Alpha  occ. eigenvalues --  -19.30742 -19.21264 -14.57121 -14.43558 -14.38206
 Alpha  occ. eigenvalues --  -14.37495 -10.30539 -10.29148 -10.28239 -10.28127
 Alpha  occ. eigenvalues --  -10.27451 -10.26745 -10.26671 -10.25874 -10.25447
 Alpha  occ. eigenvalues --  -10.24875 -10.24800 -10.22280  -1.24550  -1.14276
 Alpha  occ. eigenvalues --   -0.95442  -0.94830  -0.93800  -0.90917  -0.88821
 Alpha  occ. eigenvalues --   -0.87054  -0.82784  -0.78462  -0.74981  -0.70640
 Alpha  occ. eigenvalues --   -0.68104  -0.67143  -0.63530  -0.61654  -0.57884
 Alpha  occ. eigenvalues --   -0.56559  -0.56195  -0.54394  -0.52467  -0.49681
 Alpha  occ. eigenvalues --   -0.48785  -0.47604  -0.46899  -0.45433  -0.44657
 Alpha  occ. eigenvalues --   -0.43827  -0.43242  -0.42394  -0.41598  -0.40553
 Alpha  occ. eigenvalues --   -0.40395  -0.40277  -0.39489  -0.38602  -0.37895
 Alpha  occ. eigenvalues --   -0.37573  -0.36486  -0.32413  -0.32090  -0.31740
 Alpha  occ. eigenvalues --   -0.30817  -0.25034
 Alpha virt. eigenvalues --   -0.12274  -0.10688  -0.03910  -0.03428  -0.02786
 Alpha virt. eigenvalues --   -0.01905  -0.00846   0.00247   0.00577   0.00779
 Alpha virt. eigenvalues --    0.01326   0.01784   0.01991   0.02991   0.03577

 Mulliken charges:
               1
     1  C   -0.541023
     2  C    0.329023
     3  C   -0.420327
     4  C    0.052562
     5  C   -1.184525
     6  N   -0.223086
     7  O    0.451789
     8  N   -0.912422
     9  O   -0.019923
    10  C    0.857498
    11  C    0.613391
    12  C    0.081372
    13  C    0.204636
    14  C    0.777733
    15  C   -0.073433
    16  N   -0.469567
    17  C   -0.441479
    18  N   -0.460565
    19  H    0.182898
    20  H    0.158390
    21  H    0.182812
    22  H    0.140257
    23  H    0.159633
    24  H    0.207601
    25  H    0.160741
    26  H    0.186014
 Sum of Mulliken charges =  -0.00000

 Dipole moment (field-independent basis, Debye):
    X=             -3.6555    Y=              4.7935    Z=             -0.7093  Tot=              6.0699
 Quadrupole moment (field-independent basis, Debye-Ang):
   XX=           -134.6215   YY=           -110.4739   ZZ=           -106.2862
   XY=             -8.4373   XZ=             -6.4991   YZ=              5.7488

 Normal termination of Gaussian 16 at Tue Jul 29 17:49:37 2025.
