 Gaussian 16, Revision C.02,
 Gaussian 16:  ES64L-G16RevC.02  7-Dec-2021

 ----------------------------------------------------------
 # td=(50-50,nstates=3) b3lyp/6-31+g(d,p) geom=connectivity
 ----------------------------------------------------------

 -------------------
 Title Card Required
 -------------------
 Symbolic Z-matrix:
 Charge =  0 Multiplicity = 1

                         Standard orientation:
 ---------------------------------------------------------------------
 Center     Atomic      Atomic             Coordinates (Angstroms)
 Number     Number       Type             X           Y           Z
 ---------------------------------------------------------------------
      1          6           0        5.254245   -0.461950   -0.000455
      2          6           0        3.961419   -0.790075    0.000212
      3          6           0        2.834793    0.206649    0.000142
      4          8           0        1.599047   -0.547404    0.000217
      5          6           0        0.478119    0.162193    0.000109
      6          7           0        0.427966    1.477629   -0.000025
      7          8           0       -0.969891    1.719525   -0.000111
      8          6           0       -1.563827    0.511517    0.000077
      9          6           0       -3.060667    0.536795    0.000118
     10         17           0       -3.790290   -1.098041   -0.000203
     11          7           0       -0.736717   -0.485252    0.000205
     12          1           0        6.025618   -1.225117   -0.000302
     13          1           0        5.591289    0.572572   -0.001170
     14          1           0        3.653158   -1.833718    0.000905
     15          1           0        2.851437    0.851875    0.886549
     16          1           0        2.851424    0.851750   -0.886354
     17          1           0       -3.417224    1.067284    0.886069
     18          1           0       -3.417263    1.067666   -0.885585
 ---------------------------------------------------------------------

 SCF Done:  E(RB3LYP) =  -952.945611025     A.U. after   14 cycles

 Excitation energies and oscillator strengths:

 Excited State   1:      Triplet-A      3.9050 eV  317.50 nm  f=0.0000  <S**2>=2.000
      44 -> 47         0.29083
      45 -> 47         0.62561
      45 <- 47         0.10424
 This state for optimization and/or second-order correction.
 Total Energy, E(TD-HF/TD-DFT) =  -952.802103686
 Copying the excited state density for this state as the 1-particle RhoCI density.

 Excited State   2:      Triplet-A      4.2471 eV  291.93 nm  f=0.0000  <S**2>=2.000
      40 -> 46        -0.18624
      44 -> 46         0.59773
      44 -> 54        -0.14102
      45 -> 46        -0.26008

 Excited State   3:      Triplet-A      5.4108 eV  229.14 nm  f=0.0000  <S**2>=2.000
      40 -> 46        -0.57751
      40 -> 54        -0.11170
      42 -> 46        -0.16533
      45 -> 46         0.32099

 Excited State   4:      Singlet-A      5.8212 eV  212.99 nm  f=0.0097  <S**2>=0.000
      45 -> 46         0.70107

 Excited State   5:      Singlet-A      6.0369 eV  205.38 nm  f=0.0037  <S**2>=0.000
      41 -> 46        -0.24247
      43 -> 46         0.65923

 Excited State   6:      Singlet-A      6.0946 eV  203.43 nm  f=0.0469  <S**2>=0.000
      44 -> 46         0.68282

 The electronic state is 1-A.
 Alpha  occ. eigenvalues -- -101.56259 -19.26878 -19.22301 -14.40366 -14.36758
 Alpha  occ. eigenvalues --  -10.32882 -10.32628 -10.29059 -10.26989 -10.21450
 Alpha  occ. eigenvalues --  -10.20178  -9.47782  -7.24258  -7.23162  -7.23159
 Alpha  occ. eigenvalues --   -1.18639  -1.11532  -0.96159  -0.90548  -0.86789
 Alpha  occ. eigenvalues --   -0.81311  -0.74216  -0.72812  -0.63940  -0.62762
 Alpha  occ. eigenvalues --   -0.58522  -0.56287  -0.53484  -0.50178  -0.49412
 Alpha  occ. eigenvalues --   -0.48862  -0.46959  -0.45764  -0.44535  -0.43238
 Alpha  occ. eigenvalues --   -0.39927  -0.39492  -0.37296  -0.35602  -0.33268
 Alpha  occ. eigenvalues --   -0.33072  -0.32003  -0.31304  -0.28474  -0.27609
 Alpha virt. eigenvalues --   -0.04194  -0.02119  -0.02050  -0.00155   0.00894
 Alpha virt. eigenvalues --    0.02111   0.02751   0.03523   0.04120   0.04555
 Alpha virt. eigenvalues --    0.04792   0.05435   0.05436   0.06754   0.07043

 Mulliken charges:
               1
     1  C   -0.416910
     2  C    0.163497
     3  C   -0.079936
     4  O   -0.356699
     5  C    0.878325
     6  N   -0.621193
     7  O    0.095452
     8  C   -0.054011
     9  C   -0.479863
    10  Cl   0.016549
    11  N   -0.374673
    12  H    0.144811
    13  H    0.134900
    14  H    0.155462
    15  H    0.176067
    16  H    0.176060
    17  H    0.221084
    18  H    0.221078
 Sum of Mulliken charges =  -0.00000

 Dipole moment (field-independent basis, Debye):
    X=              0.6061    Y=              1.6014    Z=              0.0004  Tot=              1.7123
 Quadrupole moment (field-independent basis, Debye-Ang):
   XX=            -59.0433   YY=            -76.4687   ZZ=            -71.2136
   XY=             -6.2707   XZ=             -0.0019   YZ=             -0.0007

 Normal termination of Gaussian 16 at Wed Sep 17 02:41:12 2025.
