 Gaussian 16, Revision C.02,
 Gaussian 16:  ES64L-G16RevC.02  7-Dec-2021

 ----------------------------------------------------------
 # td=(50-50,nstates=3) b3lyp/6-31+g(d,p) geom=connectivity
 ----------------------------------------------------------

 -------------------
 Title Card Required
 -------------------
 Symbolic Z-matrix:
 Charge =  0 Multiplicity = 1

                         Standard orientation:
 ---------------------------------------------------------------------
 Center     Atomic      Atomic             Coordinates (Angstroms)
 Number     Number       Type             X           Y           Z
 ---------------------------------------------------------------------
      1          6           0        0.081862   -1.959655   -1.935127
      2          6           0        0.832065   -1.170087   -1.128754
      3          6           0        2.269729   -1.394654   -1.084671
      4          6           0        3.132964   -0.547440   -0.483943
      5          6           0        4.655994   -0.754390   -0.473048
      6          6           0        5.029626   -2.167113   -0.967624
      7          6           0        5.341616    0.277690   -1.405223
      8          6           0        5.200249   -0.597714    0.968632
      9          6           0        2.546378    0.684495    0.111741
     10          8           0        3.250761    1.675059    0.318679
     11          6           0        1.068038    0.733926    0.435201
     12          6           0        0.644693    1.788800    1.492918
     13          6           0        0.667554    3.207375    0.868234
     14          6           0       -0.756830    1.551134    2.101627
     15          6           0        1.625177    1.734479    2.700342
     16          6           0        0.255701   -0.104987   -0.277039
     17          6           0       -1.239362   -0.032511   -0.312853
     18          6           0       -1.897515    0.857606   -1.124973
     19          6           0       -3.333226    0.903532   -1.227213
     20         17           0       -4.022759    2.107721   -2.292728
     21          6           0       -4.155687    0.053834   -0.536045
     22          6           0       -3.486913   -0.883029    0.288361
     23          6           0       -2.069058   -0.956367    0.415005
     24          7           0       -1.705588   -1.918190    1.249987
     25          8           0       -2.866463   -2.498073    1.685216
     26          7           0       -4.001867   -1.840065    1.075879
     27          8           0       -5.136573   -2.220017    1.345930
     28          1           0        0.549653   -2.748620   -2.515458
     29          1           0       -0.989004   -1.844809   -2.046971
     30          1           0        2.625248   -2.277506   -1.605189
     31          1           0        6.113761   -2.298765   -0.892264
     32          1           0        4.556778   -2.950869   -0.365111
     33          1           0        4.758019   -2.324805   -2.017208
     34          1           0        6.424333    0.104909   -1.409996
     35          1           0        5.152517    1.299151   -1.073406
     36          1           0        4.979719    0.171622   -2.434315
     37          1           0        4.735739   -1.324862    1.644669
     38          1           0        6.280896   -0.778608    0.974718
     39          1           0        5.021871    0.405700    1.358477
     40          1           0        0.391988    3.946149    1.630118
     41          1           0        1.657510    3.456534    0.484380
     42          1           0       -0.058225    3.286737    0.050901
     43          1           0       -0.882554    2.238087    2.944640
     44          1           0       -0.866415    0.534113    2.489501
     45          1           0       -1.570755    1.756813    1.406054
     46          1           0        1.647814    0.729804    3.138594
     47          1           0        2.638819    2.022639    2.428938
     48          1           0        1.270742    2.423456    3.473961
     49          1           0       -1.323572    1.563735   -1.715037
     50          1           0       -5.235910    0.080605   -0.606573
 ---------------------------------------------------------------------

 SCF Done:  E(RB3LYP) =  -1609.33871802     A.U. after   20 cycles

 Excitation energies and oscillator strengths:

 Excited State   1:      Triplet-A      1.2363 eV 1002.85 nm  f=0.0000  <S**2>=2.000
     101 ->103        -0.13428
     102 ->103         0.70323
     102 <-103         0.22636
 This state for optimization and/or second-order correction.
 Total Energy, E(TD-HF/TD-DFT) =  -1609.29328395
 Copying the excited state density for this state as the 1-particle RhoCI density.

 Excited State   2:      Triplet-A      1.9434 eV  637.97 nm  f=0.0000  <S**2>=2.000
     100 ->104         0.15359
     101 ->103        -0.12131
     101 ->104         0.64601
     102 ->104         0.18547
     101 <-104         0.14716

 Excited State   3:      Triplet-A      2.5256 eV  490.91 nm  f=0.0000  <S**2>=2.000
     100 ->103        -0.15363
     100 ->104         0.64580
     100 ->110        -0.10014
     101 ->104        -0.12137
     102 ->104        -0.12489

 Excited State   4:      Singlet-A      2.8956 eV  428.17 nm  f=0.0015  <S**2>=0.000
     100 ->103        -0.20264
     100 ->104         0.61932
     101 ->104        -0.14362
     102 ->104        -0.17149

 Excited State   5:      Singlet-A      3.0410 eV  407.71 nm  f=0.0053  <S**2>=0.000
     101 ->103         0.58580
     102 ->103         0.35771

 Excited State   6:      Singlet-A      3.1722 eV  390.84 nm  f=0.0796  <S**2>=0.000
     100 ->104        -0.13251
     101 ->103        -0.32143
     102 ->103         0.49748
     102 ->104        -0.33121

 The electronic state is 1-A.
 Alpha  occ. eigenvalues -- -101.58526 -19.30126 -19.20982 -19.14932 -14.56691
 Alpha  occ. eigenvalues --  -14.43113 -10.30041 -10.28856 -10.28806 -10.27866
 Alpha  occ. eigenvalues --  -10.26054 -10.25536 -10.24934 -10.24409 -10.23795
 Alpha  occ. eigenvalues --  -10.23245 -10.22567 -10.22293 -10.21949 -10.21747
 Alpha  occ. eigenvalues --  -10.21715 -10.18500 -10.18301 -10.17914 -10.17664
 Alpha  occ. eigenvalues --  -10.17554 -10.17514  -9.50005  -7.26430  -7.25441
 Alpha  occ. eigenvalues --   -7.25395  -1.23963  -1.14073  -1.04896  -0.95116
 Alpha  occ. eigenvalues --   -0.90993  -0.90762  -0.88567  -0.84868  -0.83399
 Alpha  occ. eigenvalues --   -0.82499  -0.80218  -0.77438  -0.75990  -0.71166
 Alpha  occ. eigenvalues --   -0.69479  -0.69393  -0.68980  -0.68668  -0.68323
 Alpha  occ. eigenvalues --   -0.66818  -0.65125  -0.62138  -0.59778  -0.58099
 Alpha  occ. eigenvalues --   -0.56413  -0.55991  -0.55794  -0.54285  -0.53217
 Alpha  occ. eigenvalues --   -0.52030  -0.50352  -0.50197  -0.48344  -0.47594
 Alpha  occ. eigenvalues --   -0.46396  -0.45269  -0.45250  -0.44557  -0.44489
 Alpha  occ. eigenvalues --   -0.44414  -0.44004  -0.43920  -0.43077  -0.42871
 Alpha  occ. eigenvalues --   -0.42675  -0.41794  -0.40648  -0.39936  -0.39549
 Alpha  occ. eigenvalues --   -0.38963  -0.38563  -0.38272  -0.37971  -0.37537
 Alpha  occ. eigenvalues --   -0.37201  -0.36810  -0.35526  -0.35352  -0.34697
 Alpha  occ. eigenvalues --   -0.34525  -0.34273  -0.33758  -0.33399  -0.33117
 Alpha  occ. eigenvalues --   -0.31645  -0.31339  -0.30756  -0.27690  -0.25658
 Alpha  occ. eigenvalues --   -0.25483  -0.24514
 Alpha virt. eigenvalues --   -0.12014  -0.10469  -0.03557  -0.03537  -0.02322
 Alpha virt. eigenvalues --   -0.01338  -0.01109  -0.00433   0.00028   0.00555
 Alpha virt. eigenvalues --    0.01216   0.01505   0.02143   0.02288   0.02742

 Mulliken charges:
               1
     1  C   -0.646327
     2  C    0.231937
     3  C   -0.266811
     4  C    0.931846
     5  C    0.190465
     6  C   -0.414905
     7  C   -0.535327
     8  C   -0.547719
     9  C   -0.207989
    10  O   -0.420081
    11  C    0.082068
    12  C    0.499786
    13  C   -0.547329
    14  C   -0.480854
    15  C   -0.500951
    16  C    0.331553
    17  C    0.725039
    18  C   -0.936394
    19  C    0.192544
    20  Cl   0.266794
    21  C    0.417893
    22  C   -0.523405
    23  C   -0.848373
    24  N   -0.452122
    25  O    0.457690
    26  N   -0.583151
    27  O    0.059838
    28  H    0.146855
    29  H    0.144285
    30  H    0.129750
    31  H    0.151849
    32  H    0.154400
    33  H    0.142810
    34  H    0.141782
    35  H    0.184890
    36  H    0.140645
    37  H    0.145222
    38  H    0.142913
    39  H    0.174737
    40  H    0.144626
    41  H    0.184589
    42  H    0.133834
    43  H    0.146012
    44  H    0.161703
    45  H    0.151286
    46  H    0.149170
    47  H    0.179945
    48  H    0.140946
    49  H    0.154826
    50  H    0.177213
 Sum of Mulliken charges =  -0.00000

 Dipole moment (field-independent basis, Debye):
    X=              0.6865    Y=              0.1273    Z=             -2.6529  Tot=              2.7432
 Quadrupole moment (field-independent basis, Debye-Ang):
   XX=           -180.7408   YY=           -176.3486   ZZ=           -169.8777
   XY=            -16.5553   XZ=              5.0161   YZ=             10.0750

 Normal termination of Gaussian 16 at Wed Sep 17 06:19:20 2025.
