 Gaussian 16, Revision C.02,
 Gaussian 16:  ES64L-G16RevC.02  7-Dec-2021

 ----------------------------------------------------------
 # td=(50-50,nstates=3) b3lyp/6-31+g(d,p) geom=connectivity
 ----------------------------------------------------------

 -------------------
 Title Card Required
 -------------------
 Symbolic Z-matrix:
 Charge =  0 Multiplicity = 1

                         Standard orientation:
 ---------------------------------------------------------------------
 Center     Atomic      Atomic             Coordinates (Angstroms)
 Number     Number       Type             X           Y           Z
 ---------------------------------------------------------------------
      1          6           0       -3.354373   -1.981012   -0.126139
      2          6           0       -2.208184   -0.994895   -0.105887
      3          6           0       -2.432485    0.366443    0.139153
      4          6           0       -1.405833    1.329866    0.178322
      5          6           0       -1.679389    2.787830    0.452719
      6          6           0       -0.131203    0.832642   -0.048583
      7          6           0        0.138608   -0.510579   -0.301261
      8          6           0       -0.890525   -1.438274   -0.330981
      9          6           0        1.630559   -0.636875   -0.519587
     10          6           0        2.311562   -1.606049    0.340453
     11          7           0        2.824600   -2.400997    1.012742
     12          6           0        2.120254    0.823098   -0.279776
     13          8           0        3.240282    1.242415   -0.315564
     14          8           0        1.025824    1.616669   -0.046263
     15          1           0       -4.309840   -1.484319    0.062532
     16          1           0       -3.426552   -2.487891   -1.095221
     17          1           0       -3.223862   -2.756558    0.637165
     18          1           0       -3.452270    0.702776    0.313020
     19          1           0       -0.758908    3.374454    0.446384
     20          1           0       -2.354973    3.206457   -0.301367
     21          1           0       -2.157813    2.916915    1.429749
     22          1           0       -0.686930   -2.489835   -0.514424
     23          1           0        1.876149   -0.880861   -1.563016
 ---------------------------------------------------------------------

 SCF Done:  E(RB3LYP) =  -629.819381933     A.U. after   16 cycles

 Excitation energies and oscillator strengths:

 Excited State   1:      Triplet-A      3.5757 eV  346.74 nm  f=0.0000  <S**2>=2.000
      48 -> 50         0.42850
      48 -> 51         0.23985
      48 -> 52        -0.10836
      49 -> 50        -0.16750
      49 -> 51         0.32933
      49 -> 52         0.30152
 This state for optimization and/or second-order correction.
 Total Energy, E(TD-HF/TD-DFT) =  -629.687978541
 Copying the excited state density for this state as the 1-particle RhoCI density.

 Excited State   2:      Triplet-A      3.9572 eV  313.31 nm  f=0.0000  <S**2>=2.000
      48 -> 51         0.11846
      49 -> 50         0.64910
      49 -> 51         0.22416

 Excited State   3:      Triplet-A      4.3901 eV  282.42 nm  f=0.0000  <S**2>=2.000
      48 -> 50        -0.43223
      48 -> 51        -0.16194
      48 -> 52         0.10116
      49 -> 51         0.45440
      49 -> 52         0.22810

 Excited State   4:      Singlet-A      4.6559 eV  266.30 nm  f=0.0305  <S**2>=0.000
      48 -> 51        -0.15575
      48 -> 52        -0.12655
      49 -> 50         0.67445

 Excited State   5:      Singlet-A      5.1919 eV  238.80 nm  f=0.0256  <S**2>=0.000
      48 -> 50         0.38576
      48 -> 51        -0.19957
      49 -> 51         0.52409
      49 -> 52        -0.10772

 Excited State   6:      Singlet-A      5.4392 eV  227.94 nm  f=0.0358  <S**2>=0.000
      47 -> 50         0.49512
      47 -> 51        -0.26368
      47 -> 52         0.12382
      48 -> 50        -0.24563
      48 -> 52        -0.13049
      49 -> 51         0.21509
      49 -> 52        -0.15334

 The electronic state is 1-A.
 Alpha  occ. eigenvalues --  -19.24475 -19.18449 -14.36233 -10.36385 -10.28562
 Alpha  occ. eigenvalues --  -10.27919 -10.25637 -10.23948 -10.23388 -10.22893
 Alpha  occ. eigenvalues --  -10.22460 -10.21897 -10.20704 -10.20584  -1.15368
 Alpha  occ. eigenvalues --   -1.07510  -0.93099  -0.89759  -0.85092  -0.81130
 Alpha  occ. eigenvalues --   -0.77105  -0.71790  -0.71742  -0.66406  -0.62332
 Alpha  occ. eigenvalues --   -0.60917  -0.56791  -0.54816  -0.51508  -0.50215
 Alpha  occ. eigenvalues --   -0.47959  -0.47052  -0.46500  -0.44694  -0.44418
 Alpha  occ. eigenvalues --   -0.43507  -0.43007  -0.41781  -0.40145  -0.40042
 Alpha  occ. eigenvalues --   -0.38765  -0.38166  -0.37318  -0.35863  -0.35171
 Alpha  occ. eigenvalues --   -0.34801  -0.31225  -0.27749  -0.25697
 Alpha virt. eigenvalues --   -0.05839  -0.03822  -0.02194  -0.01487  -0.00131
 Alpha virt. eigenvalues --    0.00104   0.00823   0.01454   0.02603   0.02702
 Alpha virt. eigenvalues --    0.02999   0.03958   0.04919   0.05213   0.05414

 Mulliken charges:
               1
     1  C   -0.468744
     2  C    0.513487
     3  C   -0.542563
     4  C   -0.352798
     5  C   -0.575010
     6  C   -0.611503
     7  C    0.471599
     8  C    0.521910
     9  C    0.283351
    10  C   -0.157648
    11  N   -0.412651
    12  C    0.587934
    13  O   -0.423079
    14  O   -0.333706
    15  H    0.152393
    16  H    0.167639
    17  H    0.170877
    18  H    0.125525
    19  H    0.177699
    20  H    0.169181
    21  H    0.170370
    22  H    0.138811
    23  H    0.226924
 Sum of Mulliken charges =  -0.00000

 Dipole moment (field-independent basis, Debye):
    X=             -6.0281    Y=              0.3651    Z=             -2.0586  Tot=              6.3804
 Quadrupole moment (field-independent basis, Debye-Ang):
   XX=            -92.1921   YY=            -85.0666   ZZ=            -81.8340
   XY=              1.5531   XZ=             -6.2257   YZ=              6.6347

 Normal termination of Gaussian 16 at Tue Jul 29 17:46:38 2025.
