 Gaussian 16, Revision C.02,
 Gaussian 16:  ES64L-G16RevC.02  7-Dec-2021

 ----------------------------------------------------------
 # td=(50-50,nstates=3) b3lyp/6-31+g(d,p) geom=connectivity
 ----------------------------------------------------------

 -------------------
 Title Card Required
 -------------------
 Symbolic Z-matrix:
 Charge =  0 Multiplicity = 1

                         Standard orientation:
 ---------------------------------------------------------------------
 Center     Atomic      Atomic             Coordinates (Angstroms)
 Number     Number       Type             X           Y           Z
 ---------------------------------------------------------------------
      1          6           0       -2.325016    4.378623    1.099770
      2          6           0       -1.356313    3.452246    1.105087
      3          6           0       -1.416140    2.051005    1.663975
      4          6           0       -0.155287    1.814558    2.534080
      5          6           0       -2.671952    1.816760    2.526513
      6         14           0       -1.398649    0.827487    0.145843
      7          6           0        0.161310    1.173812   -0.887498
      8          6           0        0.158768    2.123070   -1.926957
      9          6           0        1.308536    2.384705   -2.679972
     10          6           0        2.493131    1.702811   -2.413538
     11          6           0        2.525152    0.748080   -1.384369
     12          6           0        3.762016    0.013063   -1.082906
     13          7           0        4.890314    0.204945   -1.735347
     14          8           0        5.782754   -0.690375   -1.128013
     15          6           0        5.090579   -1.324386   -0.166985
     16          6           0        5.790412   -2.344951    0.655670
     17         17           0        6.758596   -1.581430    1.991530
     18          7           0        3.850963   -0.946080   -0.087342
     19          6           0        1.365553    0.493215   -0.636402
     20          6           0       -1.406838   -0.996900    0.683078
     21          6           0       -2.826628   -1.593753    0.848392
     22          6           0       -3.745874   -1.398842   -0.384531
     23          6           0       -4.989698   -2.364201   -0.396930
     24          6           0       -4.519590   -3.837649   -0.377068
     25          6           0       -5.921995   -2.122051    0.808865
     26          6           0       -5.800322   -2.173975   -1.700430
     27          6           0       -4.121597    0.097258   -0.534966
     28          6           0       -2.941155    1.013287   -0.944402
     29          1           0       -2.155348    5.357176    0.659960
     30          1           0       -3.307155    4.205408    1.529689
     31          1           0       -0.398582    3.720911    0.656935
     32          1           0       -0.120815    0.791783    2.925686
     33          1           0       -0.158039    2.497145    3.393797
     34          1           0        0.769133    1.992742    1.974886
     35          1           0       -2.696601    2.529837    3.361391
     36          1           0       -3.601916    1.939886    1.962712
     37          1           0       -2.673226    0.809199    2.954855
     38          1           0       -0.751799    2.670222   -2.158405
     39          1           0        1.278905    3.121854   -3.477335
     40          1           0        3.388427    1.900422   -2.993775
     41          1           0        5.054688   -2.997101    1.122221
     42          1           0        6.489990   -2.921511    0.050927
     43          1           0        1.422797   -0.253778    0.149318
     44          1           0       -0.832212   -1.151705    1.605210
     45          1           0       -0.876612   -1.563386   -0.095759
     46          1           0       -2.717805   -2.658976    1.073274
     47          1           0       -3.313593   -1.149627    1.726261
     48          1           0       -3.158279   -1.677391   -1.275651
     49          1           0       -5.375200   -4.508206   -0.516260
     50          1           0       -3.807063   -4.037008   -1.186910
     51          1           0       -4.043686   -4.117179    0.567079
     52          1           0       -6.779630   -2.803936    0.769174
     53          1           0       -6.316591   -1.100384    0.819104
     54          1           0       -5.409556   -2.296142    1.761044
     55          1           0       -6.302699   -1.203722   -1.747722
     56          1           0       -5.157255   -2.265388   -2.584418
     57          1           0       -6.578065   -2.942420   -1.775793
     58          1           0       -4.910526    0.214518   -1.283716
     59          1           0       -4.551109    0.450553    0.411427
     60          1           0       -3.274517    2.058488   -0.971888
     61          1           0       -2.644381    0.763458   -1.973073
 ---------------------------------------------------------------------

 SCF Done:  E(RB3LYP) =  -1830.80298728     A.U. after   15 cycles

 Excitation energies and oscillator strengths:

 Excited State   1:      Triplet-A      3.1099 eV  398.68 nm  f=0.0000  <S**2>=2.000
     110 ->115        -0.19569
     111 ->113         0.53761
     111 ->114        -0.32080
     112 ->113        -0.13755
 This state for optimization and/or second-order correction.
 Total Energy, E(TD-HF/TD-DFT) =  -1830.68870064
 Copying the excited state density for this state as the 1-particle RhoCI density.

 Excited State   2:      Triplet-A      3.9044 eV  317.55 nm  f=0.0000  <S**2>=2.000
     103 ->113        -0.14114
     105 ->113         0.12793
     110 ->113         0.28319
     110 ->114        -0.10849
     110 ->115        -0.25788
     111 ->113        -0.22695
     111 ->114        -0.15884
     112 ->113        -0.26328
     112 ->114         0.16950
     112 ->115         0.10587
     112 ->116        -0.10727
     112 ->118        -0.14318

 Excited State   3:      Triplet-A      3.9479 eV  314.05 nm  f=0.0000  <S**2>=2.000
     107 ->118         0.10628
     110 ->115        -0.17492
     110 ->118         0.11163
     111 ->113        -0.10105
     111 ->114        -0.16623
     112 ->113         0.11340
     112 ->115         0.13797
     112 ->116         0.26071
     112 ->117         0.14882
     112 ->118         0.34735
     112 ->120        -0.10402
     112 ->121        -0.10842

 Excited State   4:      Singlet-A      4.1893 eV  295.95 nm  f=0.0111  <S**2>=0.000
     112 ->113         0.69443

 Excited State   5:      Singlet-A      4.5363 eV  273.31 nm  f=0.0518  <S**2>=0.000
     110 ->113        -0.15590
     111 ->113         0.62795
     111 ->114         0.15936
     111 ->115        -0.10492
     112 ->114        -0.16094

 Excited State   6:      Singlet-A      4.6430 eV  267.03 nm  f=0.0040  <S**2>=0.000
     110 ->113         0.61600
     110 ->114        -0.10975
     111 ->113         0.22142
     111 ->115         0.19939

 The electronic state is 1-A.
 Alpha  occ. eigenvalues -- -101.56240 -66.12778 -19.27185 -14.40894 -14.36877
 Alpha  occ. eigenvalues --  -10.32156 -10.28783 -10.27975 -10.22234 -10.20945
 Alpha  occ. eigenvalues --  -10.20822 -10.20785 -10.20618 -10.20338 -10.19631
 Alpha  occ. eigenvalues --  -10.19462 -10.19247 -10.19123 -10.18698 -10.18606
 Alpha  occ. eigenvalues --  -10.18363 -10.18277 -10.18164 -10.17609 -10.17599
 Alpha  occ. eigenvalues --  -10.17586 -10.17408 -10.17146  -9.47767  -7.24224
 Alpha  occ. eigenvalues --   -7.23167  -7.23143  -5.27177  -3.63087  -3.63046
 Alpha  occ. eigenvalues --   -3.63022  -1.18800  -0.96484  -0.91169  -0.87269
 Alpha  occ. eigenvalues --   -0.85986  -0.83635  -0.81669  -0.78240  -0.77265
 Alpha  occ. eigenvalues --   -0.75922  -0.74270  -0.73913  -0.73732  -0.69089
 Alpha  occ. eigenvalues --   -0.68760  -0.68495  -0.68203  -0.66967  -0.63940
 Alpha  occ. eigenvalues --   -0.61916  -0.61160  -0.60236  -0.59459  -0.58381
 Alpha  occ. eigenvalues --   -0.54662  -0.53233  -0.52944  -0.51899  -0.50924
 Alpha  occ. eigenvalues --   -0.49659  -0.48672  -0.47421  -0.47390  -0.46508
 Alpha  occ. eigenvalues --   -0.46017  -0.45023  -0.44877  -0.44467  -0.44268
 Alpha  occ. eigenvalues --   -0.43992  -0.43682  -0.43142  -0.42931  -0.42526
 Alpha  occ. eigenvalues --   -0.40864  -0.39922  -0.39851  -0.39338  -0.39215
 Alpha  occ. eigenvalues --   -0.38546  -0.38162  -0.37989  -0.37872  -0.37350
 Alpha  occ. eigenvalues --   -0.36556  -0.36368  -0.35809  -0.35512  -0.35343
 Alpha  occ. eigenvalues --   -0.35010  -0.34621  -0.33910  -0.33462  -0.32788
 Alpha  occ. eigenvalues --   -0.32219  -0.31759  -0.31622  -0.31551  -0.31405
 Alpha  occ. eigenvalues --   -0.31016  -0.29659  -0.29311  -0.27145  -0.26696
 Alpha  occ. eigenvalues --   -0.25640  -0.24299
 Alpha virt. eigenvalues --   -0.07316  -0.04886  -0.02924  -0.01282  -0.00679
 Alpha virt. eigenvalues --    0.00018   0.00380   0.00544   0.00800   0.01753
 Alpha virt. eigenvalues --    0.01996   0.02404   0.02555   0.02785   0.03164

 Mulliken charges:
               1
     1  C   -0.308748
     2  C    0.107537
     3  C   -0.173848
     4  C   -0.334675
     5  C   -0.614462
     6  Si   0.435785
     7  C   -0.771244
     8  C   -0.183892
     9  C    0.157544
    10  C   -0.315911
    11  C    0.332090
    12  C    0.494263
    13  N   -0.627181
    14  O    0.186813
    15  C    0.139882
    16  C   -0.485707
    17  Cl   0.059983
    18  N   -0.217417
    19  C   -0.042554
    20  C   -0.206423
    21  C   -0.648208
    22  C    0.217580
    23  C    0.091347
    24  C   -0.439512
    25  C   -0.472791
    26  C   -0.441732
    27  C   -0.657273
    28  C   -0.157822
    29  H    0.125840
    30  H    0.124754
    31  H    0.132159
    32  H    0.145890
    33  H    0.153110
    34  H    0.166854
    35  H    0.157116
    36  H    0.150765
    37  H    0.149122
    38  H    0.121430
    39  H    0.128842
    40  H    0.149700
    41  H    0.222860
    42  H    0.219790
    43  H    0.145162
    44  H    0.154759
    45  H    0.161450
    46  H    0.128052
    47  H    0.138979
    48  H    0.114948
    49  H    0.143916
    50  H    0.145212
    51  H    0.139474
    52  H    0.143757
    53  H    0.144655
    54  H    0.144361
    55  H    0.140752
    56  H    0.145584
    57  H    0.143789
    58  H    0.129155
    59  H    0.136331
    60  H    0.169558
    61  H    0.158446
 Sum of Mulliken charges =  -0.00000

 Dipole moment (field-independent basis, Debye):
    X=             -2.0909    Y=             -1.7577    Z=             -0.3651  Tot=              2.7558
 Quadrupole moment (field-independent basis, Debye-Ang):
   XX=           -198.8719   YY=           -180.7819   ZZ=           -191.0897
   XY=            -10.1303   XZ=             -0.5541   YZ=             -3.7669

 Normal termination of Gaussian 16 at Wed Sep 17 06:34:32 2025.
