 Gaussian 16, Revision C.02,
 Gaussian 16:  ES64L-G16RevC.02  7-Dec-2021

 ----------------------------------------------------------
 # td=(50-50,nstates=3) b3lyp/6-31+g(d,p) geom=connectivity
 ----------------------------------------------------------

 -------------------
 Title Card Required
 -------------------
 Symbolic Z-matrix:
 Charge =  0 Multiplicity = 1

                         Standard orientation:
 ---------------------------------------------------------------------
 Center     Atomic      Atomic             Coordinates (Angstroms)
 Number     Number       Type             X           Y           Z
 ---------------------------------------------------------------------
      1          6           0       -2.972835   -1.790363    1.182120
      2          6           0       -3.019056   -1.053297   -0.165510
      3          6           0       -2.431165   -1.916187   -1.296076
      4          6           0       -2.426000    0.373834   -0.090014
      5          6           0       -0.957646    0.528025    0.331872
      6          6           0       -0.642338    1.999409    0.641659
      7          8           0       -0.938564    2.584080    1.661844
      8          8           0        0.015618    2.519320   -0.392250
      9          7           0        0.059533    1.568099   -1.545309
     10          7           0        0.029315    0.295659   -0.798935
     11          6           0        1.356723   -0.235910   -0.327549
     12          6           0        1.426531   -1.514102    0.226957
     13          6           0        2.668438   -2.010569    0.631064
     14          6           0        3.815270   -1.223681    0.490642
     15          6           0        3.721149    0.055401   -0.063960
     16          6           0        2.486778    0.555821   -0.487817
     17          1           0       -3.524415   -2.734944    1.125690
     18          1           0       -1.946764   -2.035203    1.482760
     19          1           0       -3.418488   -1.189263    1.981977
     20          1           0       -4.078368   -0.895994   -0.411491
     21          1           0       -2.442336   -1.388084   -2.257132
     22          1           0       -3.013352   -2.835077   -1.422621
     23          1           0       -1.402178   -2.235237   -1.083859
     24          1           0       -2.552090    0.889725   -1.049441
     25          1           0       -3.000744    0.944264    0.648803
     26          1           0        0.534667   -2.123290    0.344377
     27          1           0        2.736248   -3.007685    1.055277
     28          1           0        4.778774   -1.608977    0.810244
     29          1           0        4.610730    0.667897   -0.174285
     30          1           0        2.375984    1.529921   -0.950559
     31          1           0       -0.356151   -0.367143   -1.474193
     32          1           0       -0.694986   -0.094687    1.187076
 ---------------------------------------------------------------------

 SCF Done:  E(RB3LYP) =  -726.780756309     A.U. after   16 cycles

 Excitation energies and oscillator strengths:

 Excited State   1:      Triplet-A      2.9525 eV  419.93 nm  f=0.0000  <S**2>=2.000
      59 -> 60         0.69073
 This state for optimization and/or second-order correction.
 Total Energy, E(TD-HF/TD-DFT) =  -726.672253089
 Copying the excited state density for this state as the 1-particle RhoCI density.

 Excited State   2:      Singlet-A      3.0662 eV  404.36 nm  f=0.0045  <S**2>=0.000
      59 -> 60         0.69829
      59 -> 61        -0.10069

 Excited State   3:      Triplet-A      3.2345 eV  383.32 nm  f=0.0000  <S**2>=2.000
      59 -> 61         0.68321

 Excited State   4:      Singlet-A      3.3091 eV  374.68 nm  f=0.0023  <S**2>=0.000
      59 -> 60         0.10104
      59 -> 61         0.69862

 Excited State   5:      Triplet-A      3.5415 eV  350.09 nm  f=0.0000  <S**2>=2.000
      59 -> 62        -0.13492
      59 -> 63         0.51641
      59 -> 64        -0.36668
      59 -> 65         0.18816

 Excited State   6:      Singlet-A      3.9467 eV  314.14 nm  f=0.0083  <S**2>=0.000
      59 -> 62         0.50105
      59 -> 63        -0.43062
      59 -> 64         0.22722

 The electronic state is 1-A.
 Alpha  occ. eigenvalues --  -19.20624 -19.14165 -14.48001 -14.35340 -10.31805
 Alpha  occ. eigenvalues --  -10.26868 -10.26052 -10.23119 -10.22535 -10.22257
 Alpha  occ. eigenvalues --  -10.22135 -10.22044 -10.21769 -10.21669 -10.20842
 Alpha  occ. eigenvalues --  -10.20039  -1.12038  -1.04027  -0.99961  -0.88509
 Alpha  occ. eigenvalues --   -0.84346  -0.79257  -0.78623  -0.77619  -0.72889
 Alpha  occ. eigenvalues --   -0.71257  -0.68587  -0.64567  -0.63230  -0.59867
 Alpha  occ. eigenvalues --   -0.58986  -0.56597  -0.53719  -0.51654  -0.50754
 Alpha  occ. eigenvalues --   -0.47942  -0.47818  -0.46744  -0.46431  -0.45584
 Alpha  occ. eigenvalues --   -0.45174  -0.44244  -0.44077  -0.41389  -0.41113
 Alpha  occ. eigenvalues --   -0.39891  -0.39498  -0.38741  -0.38398  -0.37452
 Alpha  occ. eigenvalues --   -0.35962  -0.35504  -0.34927  -0.33359  -0.31224
 Alpha  occ. eigenvalues --   -0.28694  -0.28321  -0.27321  -0.18829
 Alpha virt. eigenvalues --   -0.04720  -0.03780  -0.01753  -0.00660  -0.00256
 Alpha virt. eigenvalues --    0.00617   0.00961   0.01836   0.02463   0.03141
 Alpha virt. eigenvalues --    0.03492   0.04208   0.04363   0.04735   0.05501

 Mulliken charges:
               1
     1  C   -0.570328
     2  C    0.374247
     3  C   -0.570846
     4  C   -0.487309
     5  C   -0.150770
     6  C    0.266400
     7  O   -0.436200
     8  O   -0.085372
     9  N   -0.408748
    10  N   -0.171898
    11  C   -0.092026
    12  C   -0.005297
    13  C   -0.473982
    14  C   -0.031142
    15  C   -0.234985
    16  C    0.401663
    17  H    0.150628
    18  H    0.137634
    19  H    0.156130
    20  H    0.140913
    21  H    0.154089
    22  H    0.156863
    23  H    0.123775
    24  H    0.192689
    25  H    0.183839
    26  H    0.120261
    27  H    0.135183
    28  H    0.132859
    29  H    0.139720
    30  H    0.188046
    31  H    0.388267
    32  H    0.175698
 Sum of Mulliken charges =  -0.00000

 Dipole moment (field-independent basis, Debye):
    X=              0.0943    Y=             -7.3566    Z=             -0.2639  Tot=              7.3619
 Quadrupole moment (field-independent basis, Debye-Ang):
   XX=            -80.6917   YY=           -109.3811   ZZ=           -106.7670
   XY=              3.5074   XZ=              4.3033   YZ=             -3.0811

 Normal termination of Gaussian 16 at Wed Sep 17 09:27:42 2025.
