 Gaussian 16, Revision C.02,
 Gaussian 16:  ES64L-G16RevC.02  7-Dec-2021

 ----------------------------------------------------------
 # td=(50-50,nstates=3) b3lyp/6-31+g(d,p) geom=connectivity
 ----------------------------------------------------------

 -------------------
 Title Card Required
 -------------------
 Symbolic Z-matrix:
 Charge =  0 Multiplicity = 1

                         Standard orientation:
 ---------------------------------------------------------------------
 Center     Atomic      Atomic             Coordinates (Angstroms)
 Number     Number       Type             X           Y           Z
 ---------------------------------------------------------------------
      1          6           0       -2.867210   -2.594268    1.348645
      2          7           0       -2.179967   -1.520555    0.634960
      3          6           0       -1.203445   -1.923011   -0.374609
      4          6           0        0.109933   -1.185527   -0.257408
      5          6           0        0.594361   -0.488770    0.816677
      6          6           0        1.900488    0.028672    0.563033
      7         16           0        3.046608    0.980307    1.468020
      8          6           0        4.174787    0.940308    0.131283
      9          6           0        3.706873    0.242857   -0.950844
     10          6           0        2.403551   -0.276754   -0.697148
     11         16           0        1.247635   -1.218867   -1.607592
     12          7           0       -2.976917   -0.440669    0.427119
     13          6           0       -2.689092    0.456891   -0.444591
     14          6           0       -3.630996    1.632011   -0.588032
     15          6           0       -2.971829    2.921684   -0.334664
     16          7           0       -2.441898    3.937229   -0.142792
     17          1           0       -3.495919   -2.144707    2.117710
     18          1           0       -3.502087   -3.201550    0.684390
     19          1           0       -2.128396   -3.243101    1.826405
     20          1           0       -1.630645   -1.785874   -1.383496
     21          1           0       -1.033516   -2.998663   -0.253065
     22          1           0        0.027653   -0.351625    1.729326
     23          1           0        5.126521    1.444665    0.228948
     24          1           0        4.265001    0.114175   -1.870151
     25          1           0       -1.794345    0.448379   -1.068457
     26          1           0       -4.053320    1.669003   -1.601446
     27          1           0       -4.461878    1.509664    0.113925
 ---------------------------------------------------------------------

 SCF Done:  E(RB3LYP) =  -1386.38074375     A.U. after   16 cycles

 Excitation energies and oscillator strengths:

 Excited State   1:      Triplet-A      2.8827 eV  430.10 nm  f=0.0000  <S**2>=2.000
      65 -> 66         0.68428
 This state for optimization and/or second-order correction.
 Total Energy, E(TD-HF/TD-DFT) =  -1386.27480698
 Copying the excited state density for this state as the 1-particle RhoCI density.

 Excited State   2:      Triplet-A      3.4343 eV  361.02 nm  f=0.0000  <S**2>=2.000
      54 -> 67        -0.11626
      63 -> 67         0.20332
      64 -> 67         0.59354
      64 -> 68        -0.22275

 Excited State   3:      Triplet-A      3.8729 eV  320.13 nm  f=0.0000  <S**2>=2.000
      63 -> 66         0.63986
      64 -> 66        -0.25894

 Excited State   4:      Singlet-A      4.5689 eV  271.37 nm  f=0.1011  <S**2>=0.000
      63 -> 66         0.10928
      64 -> 66         0.55019
      65 -> 66        -0.41398

 Excited State   5:      Singlet-A      4.6198 eV  268.38 nm  f=0.2399  <S**2>=0.000
      63 -> 66         0.13452
      64 -> 66         0.39985
      65 -> 66         0.55309

 Excited State   6:      Singlet-A      4.7202 eV  262.66 nm  f=0.0013  <S**2>=0.000
      65 -> 67         0.65043
      65 -> 68         0.22490
      65 -> 69        -0.10333

 The electronic state is 1-A.
 Alpha  occ. eigenvalues --  -88.92488 -88.92235 -14.40217 -14.38912 -14.34195
 Alpha  occ. eigenvalues --  -10.25655 -10.24710 -10.24177 -10.24044 -10.23609
 Alpha  occ. eigenvalues --  -10.23182 -10.23122 -10.23087 -10.22982 -10.21410
 Alpha  occ. eigenvalues --  -10.21270  -7.98360  -7.98115  -5.94811  -5.94558
 Alpha  occ. eigenvalues --   -5.94457  -5.94196  -5.94012  -5.93785  -1.03307
 Alpha  occ. eigenvalues --   -0.91582  -0.91044  -0.87743  -0.85195  -0.79004
 Alpha  occ. eigenvalues --   -0.77348  -0.76548  -0.71628  -0.70139  -0.68076
 Alpha  occ. eigenvalues --   -0.60119  -0.57926  -0.56572  -0.55409  -0.53440
 Alpha  occ. eigenvalues --   -0.51730  -0.50316  -0.49780  -0.48593  -0.46828
 Alpha  occ. eigenvalues --   -0.44434  -0.44045  -0.43170  -0.42074  -0.41476
 Alpha  occ. eigenvalues --   -0.40788  -0.39427  -0.39098  -0.37404  -0.37179
 Alpha  occ. eigenvalues --   -0.36369  -0.34495  -0.33812  -0.33509  -0.33067
 Alpha  occ. eigenvalues --   -0.29569  -0.28994  -0.24094  -0.23751  -0.22389
 Alpha virt. eigenvalues --   -0.04357  -0.02508  -0.01117  -0.00676  -0.00047
 Alpha virt. eigenvalues --    0.00008   0.00799   0.01254   0.01830   0.02278
 Alpha virt. eigenvalues --    0.02473   0.02571   0.03187   0.03685   0.03869

 Mulliken charges:
               1
     1  C   -0.255346
     2  N    0.124167
     3  C   -0.905661
     4  C    0.547739
     5  C    0.097980
     6  C   -0.553490
     7  S    0.086150
     8  C   -0.115457
     9  C   -0.476581
    10  C    0.319194
    11  S    0.124936
    12  N   -0.147746
    13  C    0.008317
    14  C   -0.355232
    15  C    0.215766
    16  N   -0.493709
    17  H    0.168786
    18  H    0.138040
    19  H    0.152683
    20  H    0.153586
    21  H    0.168602
    22  H    0.144890
    23  H    0.165598
    24  H    0.141129
    25  H    0.149014
    26  H    0.192213
    27  H    0.204432
 Sum of Mulliken charges =  -0.00000

 Dipole moment (field-independent basis, Debye):
    X=             -0.5192    Y=             -4.9083    Z=             -1.0812  Tot=              5.0527
 Quadrupole moment (field-independent basis, Debye-Ang):
   XX=            -95.3967   YY=           -124.4534   ZZ=           -105.6076
   XY=             12.2623   XZ=              0.6604   YZ=             -1.9659

 Normal termination of Gaussian 16 at Tue Jul 29 17:46:10 2025.
