 Gaussian 16, Revision C.02,
 Gaussian 16:  ES64L-G16RevC.02  7-Dec-2021

 ----------------------------------------------------------
 # td=(50-50,nstates=3) b3lyp/6-31+g(d,p) geom=connectivity
 ----------------------------------------------------------

 -------------------
 Title Card Required
 -------------------
 Symbolic Z-matrix:
 Charge =  0 Multiplicity = 1

                         Standard orientation:
 ---------------------------------------------------------------------
 Center     Atomic      Atomic             Coordinates (Angstroms)
 Number     Number       Type             X           Y           Z
 ---------------------------------------------------------------------
      1          6           0       -2.650372   -1.538996   -0.869138
      2          6           0       -2.108327   -1.573049    0.521756
      3          7           0       -1.298476   -0.697910    1.058425
      4          8           0       -0.904117   -0.744687    2.285878
      5          6           0       -0.811015    0.464141    0.316513
      6          6           0       -1.653994    1.575113    0.241902
      7          6           0       -1.223118    2.736371   -0.398119
      8          6           0        0.056727    2.779298   -0.957207
      9          6           0        0.894363    1.667235   -0.865092
     10          6           0        0.486520    0.486625   -0.222707
     11          7           0        1.355006   -0.655433   -0.107678
     12          6           0        1.815345   -1.189198   -1.402797
     13          6           0        0.690626   -1.680530   -2.309113
     14          6           0        2.521333   -0.419322    0.777203
     15          6           0        2.177141    0.077338    2.177559
     16          1           0       -3.743644   -1.434766   -0.848620
     17          1           0       -2.242277   -0.719612   -1.461459
     18          1           0       -2.433593   -2.480470   -1.388601
     19          1           0       -2.404258   -2.360416    1.207831
     20          1           0       -2.638876    1.520876    0.695171
     21          1           0       -1.879726    3.599025   -0.455610
     22          1           0        0.404815    3.678633   -1.457133
     23          1           0        1.891296    1.712139   -1.293504
     24          1           0        2.436615   -0.454059   -1.949792
     25          1           0        2.475560   -2.031409   -1.167841
     26          1           0        1.114148   -2.108422   -3.224077
     27          1           0        0.100361   -2.453407   -1.808341
     28          1           0        0.019691   -0.867884   -2.604017
     29          1           0        3.039001   -1.382449    0.854014
     30          1           0        3.232265    0.282866    0.298896
     31          1           0        3.096078    0.124680    2.772499
     32          1           0        1.739594    1.080164    2.159442
     33          1           0        1.458785   -0.584746    2.664321
 ---------------------------------------------------------------------

 SCF Done:  E(RB3LYP) =  -652.800451567     A.U. after   18 cycles

 Excitation energies and oscillator strengths:

 Excited State   1:      Triplet-A      2.2075 eV  561.65 nm  f=0.0000  <S**2>=2.000
      56 -> 57         0.50728
      56 -> 58        -0.10482
      56 -> 59        -0.48228
      56 <- 57         0.12497
      56 <- 59        -0.12831
 This state for optimization and/or second-order correction.
 Total Energy, E(TD-HF/TD-DFT) =  -652.719328030
 Copying the excited state density for this state as the 1-particle RhoCI density.

 Excited State   2:      Triplet-A      3.6043 eV  343.99 nm  f=0.0000  <S**2>=2.000
      52 -> 57         0.23347
      52 -> 58         0.13137
      52 -> 59         0.20336
      53 -> 58         0.39103
      53 -> 59        -0.13632
      54 -> 57         0.34520
      54 -> 59         0.10620
      55 -> 57         0.21416
      56 -> 58        -0.11452

 Excited State   3:      Triplet-A      3.8380 eV  323.04 nm  f=0.0000  <S**2>=2.000
      52 -> 57         0.16693
      53 -> 58         0.15328
      54 -> 57        -0.34073
      54 -> 58         0.14204
      54 -> 59         0.40765
      55 -> 57        -0.24663
      55 -> 59         0.23249
      56 -> 59         0.11667

 Excited State   4:      Singlet-A      4.1087 eV  301.76 nm  f=0.0062  <S**2>=0.000
      54 -> 57         0.32819
      54 -> 59        -0.28690
      55 -> 57         0.36378
      55 -> 58        -0.10922
      55 -> 59        -0.15721
      56 -> 57         0.33843
      56 -> 59         0.10539

 Excited State   5:      Singlet-A      4.1986 eV  295.30 nm  f=0.0028  <S**2>=0.000
      54 -> 57        -0.17485
      54 -> 59         0.13271
      55 -> 57        -0.18323
      56 -> 57         0.44400
      56 -> 58         0.31781
      56 -> 59         0.31762

 Excited State   6:      Singlet-A      4.2706 eV  290.32 nm  f=0.0044  <S**2>=0.000
      54 -> 57         0.18303
      54 -> 58        -0.12242
      54 -> 59        -0.12973
      55 -> 57        -0.12843
      55 -> 58         0.31321
      55 -> 59        -0.23089
      56 -> 57        -0.14069
      56 -> 58         0.44833
      56 -> 59        -0.20118

 The electronic state is 1-A.
 Alpha  occ. eigenvalues --  -19.11775 -14.47239 -14.33830 -10.24439 -10.24021
 Alpha  occ. eigenvalues --  -10.23480 -10.21815 -10.21294 -10.21092 -10.21031
 Alpha  occ. eigenvalues --  -10.21031 -10.20747 -10.20658 -10.18396 -10.15991
 Alpha  occ. eigenvalues --   -1.09342  -0.93819  -0.87758  -0.85210  -0.77869
 Alpha  occ. eigenvalues --   -0.76721  -0.76144  -0.72965  -0.71244  -0.65848
 Alpha  occ. eigenvalues --   -0.64383  -0.60884  -0.59379  -0.57057  -0.52134
 Alpha  occ. eigenvalues --   -0.50104  -0.49558  -0.48586  -0.47675  -0.46988
 Alpha  occ. eigenvalues --   -0.45488  -0.44238  -0.43800  -0.43031  -0.41482
 Alpha  occ. eigenvalues --   -0.40985  -0.40433  -0.39922  -0.38604  -0.37797
 Alpha  occ. eigenvalues --   -0.37286  -0.36785  -0.35886  -0.34792  -0.34475
 Alpha  occ. eigenvalues --   -0.33427  -0.27862  -0.26661  -0.23815  -0.22533
 Alpha  occ. eigenvalues --   -0.21469
 Alpha virt. eigenvalues --   -0.03251  -0.02995  -0.02308  -0.00397   0.00559
 Alpha virt. eigenvalues --    0.01015   0.02088   0.02692   0.03132   0.03304
 Alpha virt. eigenvalues --    0.04173   0.04805   0.05337   0.05581   0.06052

 Mulliken charges:
               1
     1  C   -0.432622
     2  C    0.096194
     3  N   -0.045500
     4  O   -0.184306
     5  C   -0.165423
     6  C   -0.158455
     7  C   -0.127419
     8  C   -0.274682
     9  C    0.031057
    10  C   -0.711017
    11  N    0.184073
    12  C    0.104203
    13  C   -0.511907
    14  C    0.096993
    15  C   -0.537370
    16  H    0.163373
    17  H    0.171778
    18  H    0.164599
    19  H    0.156618
    20  H    0.139234
    21  H    0.131525
    22  H    0.129819
    23  H    0.134387
    24  H    0.122076
    25  H    0.133389
    26  H    0.141011
    27  H    0.155698
    28  H    0.152398
    29  H    0.129421
    30  H    0.122189
    31  H    0.129511
    32  H    0.154799
    33  H    0.204355
 Sum of Mulliken charges =  -0.00000

 Dipole moment (field-independent basis, Debye):
    X=             -0.5758    Y=              0.6743    Z=             -4.2213  Tot=              4.3134
 Quadrupole moment (field-independent basis, Debye-Ang):
   XX=            -82.8831   YY=            -85.6674   ZZ=           -102.6852
   XY=              0.5570   XZ=              1.5764   YZ=              1.7053

 Normal termination of Gaussian 16 at Wed Sep 17 09:04:12 2025.
