 Gaussian 16, Revision C.02,
 Gaussian 16:  ES64L-G16RevC.02  7-Dec-2021

 ----------------------------------------------------------
 # td=(50-50,nstates=3) b3lyp/6-31+g(d,p) geom=connectivity
 ----------------------------------------------------------

 -------------------
 Title Card Required
 -------------------
 Symbolic Z-matrix:
 Charge =  0 Multiplicity = 1

                         Standard orientation:
 ---------------------------------------------------------------------
 Center     Atomic      Atomic             Coordinates (Angstroms)
 Number     Number       Type             X           Y           Z
 ---------------------------------------------------------------------
      1          6           0        0.563805   -3.170127    1.130377
      2          6           0        1.703183   -2.545077    0.334438
      3          8           0        2.492355   -1.796452    1.259605
      4          6           0        1.224982   -1.674362   -0.869325
      5          6           0        0.391444   -0.466515   -0.500886
      6          6           0       -0.967222   -0.618596   -0.477212
      7          6           0       -1.889576    0.420949   -0.098297
      8          6           0       -3.263233    0.201041   -0.094236
      9          6           0       -4.187051    1.221199    0.284277
     10          7           0       -4.934439    2.059420    0.594137
     11          6           0       -3.825830   -1.056248   -0.469439
     12          7           0       -4.273883   -2.086354   -0.778333
     13          6           0       -1.333058    1.697600    0.278051
     14          6           0        0.005622    1.891611    0.240344
     15          6           0        0.942397    0.854085   -0.166193
     16          6           0        2.285169    1.220973   -0.235548
     17          6           0        3.386237    0.394966   -0.613399
     18          7           0        4.340812   -0.209838   -0.898710
     19          6           0        2.701578    2.554377    0.083943
     20          7           0        3.060476    3.633302    0.336522
     21          1           0       -0.093811   -3.760976    0.484416
     22          1           0        0.976455   -3.828536    1.899123
     23          1           0       -0.033204   -2.402892    1.632420
     24          1           0        2.309323   -3.351167   -0.103522
     25          1           0        3.384328   -1.683312    0.904444
     26          1           0        2.093991   -1.391707   -1.464475
     27          1           0        0.616757   -2.321274   -1.510931
     28          1           0       -1.385319   -1.580845   -0.754093
     29          1           0       -1.995027    2.500835    0.583426
     30          1           0        0.406232    2.860539    0.515662
 ---------------------------------------------------------------------

 SCF Done:  E(RB3LYP) =  -871.777349858     A.U. after   17 cycles

 Excitation energies and oscillator strengths:

 Excited State   1:      Triplet-A      0.6197 eV 2000.73 nm  f=0.0000  <S**2>=2.000
      67 -> 69         0.10629
      68 -> 69         0.78737
      68 <- 69         0.37347
 This state for optimization and/or second-order correction.
 Total Energy, E(TD-HF/TD-DFT) =  -871.754576479
 Copying the excited state density for this state as the 1-particle RhoCI density.

 Excited State   2:      Triplet-A      2.2753 eV  544.92 nm  f=0.0000  <S**2>=2.000
      66 -> 69         0.34647
      67 -> 69         0.59731

 Excited State   3:      Singlet-A      2.5092 eV  494.11 nm  f=0.1124  <S**2>=0.000
      67 -> 69         0.59639
      68 -> 69        -0.38016

 Excited State   4:      Triplet-A      2.8586 eV  433.73 nm  f=0.0000  <S**2>=2.000
      65 -> 69        -0.10458
      66 -> 69         0.58674
      67 -> 69        -0.35759

 Excited State   5:      Singlet-A      2.9593 eV  418.96 nm  f=0.8670  <S**2>=0.000
      67 -> 69         0.37431
      68 -> 69         0.61177
      68 <- 69        -0.15711

 Excited State   6:      Singlet-A      3.1868 eV  389.05 nm  f=0.0014  <S**2>=0.000
      66 -> 69         0.70184

 The electronic state is 1-A.
 Alpha  occ. eigenvalues --  -19.18121 -14.39423 -14.38964 -14.38947 -14.38873
 Alpha  occ. eigenvalues --  -10.32114 -10.31795 -10.30182 -10.29542 -10.28943
 Alpha  occ. eigenvalues --  -10.28106 -10.28095 -10.27993 -10.27789 -10.27766
 Alpha  occ. eigenvalues --  -10.26603 -10.26496 -10.26123 -10.23425 -10.20240
 Alpha  occ. eigenvalues --   -1.05229  -0.97094  -0.96529  -0.95241  -0.94846
 Alpha  occ. eigenvalues --   -0.93724  -0.89450  -0.85498  -0.84047  -0.79553
 Alpha  occ. eigenvalues --   -0.77228  -0.73607  -0.68997  -0.68022  -0.64113
 Alpha  occ. eigenvalues --   -0.62500  -0.60228  -0.58804  -0.57586  -0.54568
 Alpha  occ. eigenvalues --   -0.51930  -0.49865  -0.49833  -0.47887  -0.46712
 Alpha  occ. eigenvalues --   -0.46184  -0.45535  -0.44950  -0.41909  -0.41719
 Alpha  occ. eigenvalues --   -0.41450  -0.41208  -0.41181  -0.40889  -0.40707
 Alpha  occ. eigenvalues --   -0.40411  -0.39240  -0.38818  -0.38753  -0.38462
 Alpha  occ. eigenvalues --   -0.38344  -0.37395  -0.37221  -0.35547  -0.34777
 Alpha  occ. eigenvalues --   -0.32840  -0.30346  -0.27381
 Alpha virt. eigenvalues --   -0.18337  -0.07352  -0.07117  -0.05169  -0.04188
 Alpha virt. eigenvalues --   -0.02301  -0.01142  -0.00697  -0.00274   0.00186
 Alpha virt. eigenvalues --    0.00616   0.00916   0.01074   0.01555   0.02030

 Mulliken charges:
               1
     1  C   -0.486468
     2  C   -0.119273
     3  O   -0.498204
     4  C   -0.384073
     5  C    0.529627
     6  C   -0.402327
     7  C    1.461152
     8  C    0.578821
     9  C   -0.219063
    10  N   -0.455287
    11  C   -0.490184
    12  N   -0.449183
    13  C   -0.631207
    14  C   -0.816377
    15  C    1.021461
    16  C    0.958388
    17  C   -0.105716
    18  N   -0.498037
    19  C   -0.331447
    20  N   -0.441502
    21  H    0.146757
    22  H    0.167598
    23  H    0.164069
    24  H    0.131532
    25  H    0.359884
    26  H    0.161187
    27  H    0.152287
    28  H    0.153397
    29  H    0.172800
    30  H    0.169387
 Sum of Mulliken charges =  -0.00000

 Dipole moment (field-independent basis, Debye):
    X=              1.0376    Y=             -2.1750    Z=             -1.0756  Tot=              2.6390
 Quadrupole moment (field-independent basis, Debye-Ang):
   XX=           -160.6638   YY=           -127.6547   ZZ=           -119.9073
   XY=            -10.1051   XZ=             -0.7854   YZ=             -1.9625

 Normal termination of Gaussian 16 at Tue Jul 29 17:08:56 2025.
