 Gaussian 16, Revision C.02,
 Gaussian 16:  ES64L-G16RevC.02  7-Dec-2021

 ----------------------------------------------------------
 # td=(50-50,nstates=3) b3lyp/6-31+g(d,p) geom=connectivity
 ----------------------------------------------------------

 -------------------
 Title Card Required
 -------------------
 Symbolic Z-matrix:
 Charge =  0 Multiplicity = 1

                         Standard orientation:
 ---------------------------------------------------------------------
 Center     Atomic      Atomic             Coordinates (Angstroms)
 Number     Number       Type             X           Y           Z
 ---------------------------------------------------------------------
      1          6           0       -5.632538    1.881874    0.551975
      2          7           0       -4.328624    1.275039    0.801450
      3          6           0       -3.287620    2.167397    1.309420
      4          6           0       -2.167698    1.362337    1.946491
      5          7           0       -1.631852    0.366860    1.020608
      6          6           0       -0.289336   -0.133083    1.345142
      7          6           0        0.790973    0.769586    0.786804
      8          6           0        2.058523    0.421308    0.492283
      9          6           0        2.985128    1.432949   -0.089945
     10          6           0        3.194414    2.649647    0.579564
     11          6           0        3.980090    3.659904    0.025400
     12          6           0        4.569070    3.466434   -1.227840
     13          6           0        4.377976    2.262110   -1.898352
     14          6           0        3.611678    1.216464   -1.343384
     15          6           0        3.485301   -0.022875   -2.111029
     16          6           0        3.271334   -1.280816   -1.661453
     17          6           0        3.124642   -1.742043   -0.281889
     18          6           0        3.520866   -3.060376    0.018926
     19          6           0        3.467847   -3.561296    1.315444
     20          6           0        2.999150   -2.748385    2.351929
     21          6           0        2.565827   -1.453869    2.067578
     22          6           0        2.602149   -0.939703    0.761372
     23          6           0       -2.493016   -0.262572    0.168289
     24          6           0       -2.324025   -1.333730   -0.685917
     25          6           0       -1.175157   -2.110282   -0.941726
     26          7           0       -0.267080   -2.796690   -1.208660
     27          6           0       -3.616930   -1.622243   -1.411049
     28          6           0       -4.553392   -0.565102   -0.879094
     29          6           0       -5.891610   -0.494554   -1.324643
     30          7           0       -6.987096   -0.494388   -1.732012
     31          6           0       -3.893967    0.220406    0.040172
     32          1           0       -6.407776    1.116842    0.518172
     33          1           0       -5.859361    2.564811    1.374000
     34          1           0       -5.655442    2.443433   -0.393137
     35          1           0       -3.734383    2.817723    2.066520
     36          1           0       -2.886699    2.808307    0.506977
     37          1           0       -2.531967    0.876250    2.865943
     38          1           0       -1.356777    2.041431    2.227687
     39          1           0       -0.229033   -0.196691    2.441719
     40          1           0       -0.168629   -1.152211    0.976892
     41          1           0        0.478738    1.789229    0.567223
     42          1           0        2.729751    2.796768    1.550240
     43          1           0        4.125422    4.591881    0.563855
     44          1           0        5.175120    4.247873   -1.676815
     45          1           0        4.836995    2.109768   -2.871802
     46          1           0        3.671629    0.084410   -3.178122
     47          1           0        3.295794   -2.074923   -2.404677
     48          1           0        3.883431   -3.691289   -0.787931
     49          1           0        3.788888   -4.578712    1.517987
     50          1           0        2.959208   -3.123099    3.370537
     51          1           0        2.194749   -0.822464    2.869928
     52          1           0       -3.982189   -2.636827   -1.200867
     53          1           0       -3.502983   -1.545186   -2.500828
 ---------------------------------------------------------------------

 SCF Done:  E(RB3LYP) =  -1261.13110740     A.U. after   17 cycles

 Excitation energies and oscillator strengths:

 Excited State   1:      Triplet-A      2.1864 eV  567.07 nm  f=0.0000  <S**2>=2.000
     106 ->107         0.69414
     106 <-107         0.10406
 This state for optimization and/or second-order correction.
 Total Energy, E(TD-HF/TD-DFT) =  -1261.05075899
 Copying the excited state density for this state as the 1-particle RhoCI density.

 Excited State   2:      Triplet-A      2.6027 eV  476.36 nm  f=0.0000  <S**2>=2.000
     101 ->111         0.11321
     102 ->109         0.10693
     105 ->108         0.66161

 Excited State   3:      Triplet-A      2.8431 eV  436.08 nm  f=0.0000  <S**2>=2.000
     104 ->107         0.67900

 Excited State   4:      Singlet-A      3.5858 eV  345.76 nm  f=0.0011  <S**2>=0.000
     105 ->107         0.70333

 Excited State   5:      Singlet-A      3.6917 eV  335.85 nm  f=0.1081  <S**2>=0.000
     106 ->107         0.69380

 Excited State   6:      Singlet-A      3.8846 eV  319.17 nm  f=0.0606  <S**2>=0.000
     105 ->108        -0.41855
     106 ->108         0.55295

 The electronic state is 1-A.
 Alpha  occ. eigenvalues --  -14.39778 -14.39710 -14.33516 -14.33181 -10.27485
 Alpha  occ. eigenvalues --  -10.27337 -10.26118 -10.26093 -10.24811 -10.24002
 Alpha  occ. eigenvalues --  -10.23194 -10.22987 -10.22817 -10.22549 -10.22046
 Alpha  occ. eigenvalues --  -10.21621 -10.21386 -10.21210 -10.21196 -10.20925
 Alpha  occ. eigenvalues --  -10.20677 -10.20305 -10.20244 -10.20214 -10.20161
 Alpha  occ. eigenvalues --  -10.20157 -10.20058 -10.20051 -10.19963 -10.19894
 Alpha  occ. eigenvalues --  -10.19808  -1.01337  -0.97008  -0.90843  -0.90081
 Alpha  occ. eigenvalues --   -0.88634  -0.87995  -0.86405  -0.82481  -0.80827
 Alpha  occ. eigenvalues --   -0.79789  -0.77641  -0.77061  -0.76706  -0.75577
 Alpha  occ. eigenvalues --   -0.74395  -0.72782  -0.70097  -0.68158  -0.67525
 Alpha  occ. eigenvalues --   -0.65049  -0.64497  -0.63185  -0.60787  -0.60656
 Alpha  occ. eigenvalues --   -0.57429  -0.56951  -0.56285  -0.55766  -0.54023
 Alpha  occ. eigenvalues --   -0.52886  -0.51152  -0.50426  -0.49506  -0.48723
 Alpha  occ. eigenvalues --   -0.48147  -0.47987  -0.47518  -0.46632  -0.46296
 Alpha  occ. eigenvalues --   -0.46018  -0.44808  -0.44348  -0.44104  -0.43246
 Alpha  occ. eigenvalues --   -0.43165  -0.42711  -0.42084  -0.41808  -0.41623
 Alpha  occ. eigenvalues --   -0.41367  -0.40057  -0.39123  -0.38796  -0.38741
 Alpha  occ. eigenvalues --   -0.37689  -0.37326  -0.36837  -0.36506  -0.36172
 Alpha  occ. eigenvalues --   -0.35802  -0.35280  -0.34613  -0.34377  -0.33750
 Alpha  occ. eigenvalues --   -0.33002  -0.31904  -0.31243  -0.31052  -0.29087
 Alpha  occ. eigenvalues --   -0.26847  -0.25362  -0.24848  -0.23402  -0.21760
 Alpha  occ. eigenvalues --   -0.21584
 Alpha virt. eigenvalues --   -0.06970  -0.05635  -0.04144  -0.02366  -0.01835
 Alpha virt. eigenvalues --   -0.01212  -0.00582   0.00086   0.00315   0.00608
 Alpha virt. eigenvalues --    0.00963   0.01178   0.01393   0.01712   0.01746

 Mulliken charges:
               1
     1  C   -0.240301
     2  N   -0.104384
     3  C   -0.256763
     4  C    0.006305
     5  N    0.196764
     6  C   -1.238236
     7  C    0.584678
     8  C    0.132004
     9  C   -0.372020
    10  C   -0.051522
    11  C   -0.288968
    12  C   -0.269624
    13  C   -0.370968
    14  C    0.620337
    15  C    0.054324
    16  C   -0.253745
    17  C    0.718040
    18  C   -0.262754
    19  C   -0.189598
    20  C   -0.224872
    21  C   -0.060622
    22  C   -0.366203
    23  C   -0.662478
    24  C    1.444523
    25  C   -0.191240
    26  N   -0.472568
    27  C   -0.886049
    28  C    0.556563
    29  C    0.291529
    30  N   -0.617987
    31  C   -0.371174
    32  H    0.178565
    33  H    0.140422
    34  H    0.167156
    35  H    0.142999
    36  H    0.159866
    37  H    0.159554
    38  H    0.152580
    39  H    0.158674
    40  H    0.174665
    41  H    0.126186
    42  H    0.121102
    43  H    0.124558
    44  H    0.126950
    45  H    0.126328
    46  H    0.119353
    47  H    0.117704
    48  H    0.121830
    49  H    0.126571
    50  H    0.122315
    51  H    0.108693
    52  H    0.185389
    53  H    0.185549
 Sum of Mulliken charges =  -0.00000

 Dipole moment (field-independent basis, Debye):
    X=              2.2083    Y=              4.9647    Z=              4.8897  Tot=              7.3099
 Quadrupole moment (field-independent basis, Debye-Ang):
   XX=           -217.3470   YY=           -173.0414   ZZ=           -174.0903
   XY=            -13.3182   XZ=            -24.0579   YZ=              0.5907

 Normal termination of Gaussian 16 at Tue Jul 29 16:27:42 2025.
