 Gaussian 16, Revision C.02,
 Gaussian 16:  ES64L-G16RevC.02  7-Dec-2021

 ----------------------------------------------------------
 # td=(50-50,nstates=3) b3lyp/6-31+g(d,p) geom=connectivity
 ----------------------------------------------------------

 -------------------
 Title Card Required
 -------------------
 Symbolic Z-matrix:
 Charge =  0 Multiplicity = 1

                         Standard orientation:
 ---------------------------------------------------------------------
 Center     Atomic      Atomic             Coordinates (Angstroms)
 Number     Number       Type             X           Y           Z
 ---------------------------------------------------------------------
      1          6           0       -0.686851    3.454995    0.000001
      2          6           0       -0.335170    2.150481   -0.000029
      3          6           0        1.056479    1.719014    0.000076
      4          6           0        1.408331    0.424241    0.000015
      5          6           0        2.802057   -0.179765   -0.000020
      6          6           0        3.877263    0.922281    0.000886
      7          6           0        2.978578   -1.056926    1.263976
      8          6           0        2.979116   -1.055419   -1.264949
      9          8           0        0.434364   -0.564689   -0.000175
     10          6           0       -0.900178   -0.271482   -0.000224
     11          6           0       -1.691157   -1.582059   -0.000003
     12          6           0       -3.219793   -1.407686   -0.001629
     13          6           0       -1.291817   -2.385727   -1.265244
     14          6           0       -1.294122   -2.383537    1.267384
     15          6           0       -1.312318    1.031074   -0.000137
     16          6           0       -2.688040    1.418828   -0.000089
     17          7           0       -3.764981    1.862208   -0.000044
     18          1           0       -1.721692    3.775211   -0.000055
     19          1           0        0.076460    4.225979    0.000099
     20          1           0        1.825340    2.480774    0.000205
     21          1           0        4.869168    0.459486    0.001016
     22          1           0        3.807948    1.558566   -0.887445
     23          1           0        3.807283    1.557738    0.889753
     24          1           0        3.978885   -1.503237    1.269669
     25          1           0        2.245745   -1.867434    1.293510
     26          1           0        2.866564   -0.459926    2.175295
     27          1           0        2.867741   -0.457291   -2.175605
     28          1           0        3.979323   -1.501967   -1.270629
     29          1           0        2.246119   -1.865734   -1.295891
     30          1           0       -3.674155   -2.404014   -0.001897
     31          1           0       -3.582330   -0.879686    0.883150
     32          1           0       -3.580382   -0.880056   -0.887452
     33          1           0       -1.829214   -3.339710   -1.272105
     34          1           0       -0.220512   -2.596670   -1.290293
     35          1           0       -1.559163   -1.840870   -2.176912
     36          1           0       -1.563523   -1.837271    2.177598
     37          1           0       -1.831146   -3.337732    1.274725
     38          1           0       -0.222766   -2.593976    1.294898
 ---------------------------------------------------------------------

 SCF Done:  E(RB3LYP) =  -714.230365255     A.U. after   15 cycles

 Excitation energies and oscillator strengths:

 Excited State   1:      Triplet-A      2.5728 eV  481.90 nm  f=0.0000  <S**2>=2.000
      62 -> 64         0.17425
      63 -> 64        -0.45851
      63 -> 65         0.50355
 This state for optimization and/or second-order correction.
 Total Energy, E(TD-HF/TD-DFT) =  -714.135816226
 Copying the excited state density for this state as the 1-particle RhoCI density.

 Excited State   2:      Triplet-A      2.8501 eV  435.02 nm  f=0.0000  <S**2>=2.000
      62 -> 65         0.11767
      63 -> 64         0.49391
      63 -> 65         0.46960

 Excited State   3:      Singlet-A      3.5573 eV  348.54 nm  f=0.0148  <S**2>=0.000
      63 -> 64         0.68509
      63 -> 65         0.15840

 Excited State   4:      Triplet-A      4.1561 eV  298.32 nm  f=0.0000  <S**2>=2.000
      62 -> 64         0.62173
      62 -> 65         0.13432
      63 -> 64         0.14868
      63 -> 73        -0.10032

 Excited State   5:      Singlet-A      4.8121 eV  257.65 nm  f=0.3017  <S**2>=0.000
      62 -> 64        -0.19088
      63 -> 64        -0.13358
      63 -> 65         0.64961

 Excited State   6:      Singlet-A      4.8220 eV  257.12 nm  f=0.0008  <S**2>=0.000
      63 -> 66         0.68374
      63 -> 68        -0.13688

 The electronic state is 1-A.
 Alpha  occ. eigenvalues --  -19.22976 -14.33911 -10.29437 -10.27130 -10.24130
 Alpha  occ. eigenvalues --  -10.23426 -10.23344 -10.23031 -10.22285 -10.20619
 Alpha  occ. eigenvalues --  -10.19498 -10.19308 -10.19308 -10.19289 -10.19288
 Alpha  occ. eigenvalues --  -10.18625 -10.17936  -1.12005  -0.91079  -0.86595
 Alpha  occ. eigenvalues --   -0.85074  -0.83244  -0.78196  -0.73375  -0.71485
 Alpha  occ. eigenvalues --   -0.70398  -0.70217  -0.69789  -0.68496  -0.63051
 Alpha  occ. eigenvalues --   -0.58252  -0.57118  -0.56836  -0.53277  -0.49701
 Alpha  occ. eigenvalues --   -0.48326  -0.48256  -0.45578  -0.45487  -0.44792
 Alpha  occ. eigenvalues --   -0.44596  -0.43464  -0.43194  -0.40642  -0.40435
 Alpha  occ. eigenvalues --   -0.39929  -0.39778  -0.39711  -0.38441  -0.38392
 Alpha  occ. eigenvalues --   -0.38074  -0.37671  -0.36965  -0.36595  -0.35509
 Alpha  occ. eigenvalues --   -0.35337  -0.34727  -0.34496  -0.34427  -0.32901
 Alpha  occ. eigenvalues --   -0.32083  -0.27834  -0.21031
 Alpha virt. eigenvalues --   -0.05047  -0.02979  -0.00986   0.00370   0.01099
 Alpha virt. eigenvalues --    0.01560   0.01847   0.02364   0.02785   0.03098
 Alpha virt. eigenvalues --    0.03410   0.03470   0.04514   0.04847   0.04915

 Mulliken charges:
               1
     1  C   -0.030101
     2  C    0.214412
     3  C   -0.103916
     4  C    0.338430
     5  C   -0.009733
     6  C   -0.546446
     7  C   -0.466964
     8  C   -0.466883
     9  O   -0.265556
    10  C   -0.030598
    11  C    0.085302
    12  C   -0.550127
    13  C   -0.448676
    14  C   -0.448603
    15  C    0.592388
    16  C   -0.581151
    17  N   -0.512502
    18  H    0.150944
    19  H    0.128319
    20  H    0.134644
    21  H    0.153093
    22  H    0.156834
    23  H    0.156857
    24  H    0.149751
    25  H    0.154754
    26  H    0.155760
    27  H    0.155760
    28  H    0.149757
    29  H    0.154756
    30  H    0.148329
    31  H    0.173339
    32  H    0.173289
    33  H    0.151138
    34  H    0.156848
    35  H    0.159256
    36  H    0.159283
    37  H    0.151164
    38  H    0.156846
 Sum of Mulliken charges =  -0.00000

 Dipole moment (field-independent basis, Debye):
    X=              4.6338    Y=             -3.1289    Z=              0.0003  Tot=              5.5913
 Quadrupole moment (field-independent basis, Debye-Ang):
   XX=           -115.5299   YY=           -106.9197   ZZ=           -107.4748
   XY=             13.1355   XZ=             -0.0004   YZ=             -0.0001

 Normal termination of Gaussian 16 at Tue Jul 29 17:44:06 2025.
