 Gaussian 16, Revision C.02,
 Gaussian 16:  ES64L-G16RevC.02  7-Dec-2021

 ----------------------------------------------------------
 # td=(50-50,nstates=3) b3lyp/6-31+g(d,p) geom=connectivity
 ----------------------------------------------------------

 -------------------
 Title Card Required
 -------------------
 Symbolic Z-matrix:
 Charge =  0 Multiplicity = 1

                         Standard orientation:
 ---------------------------------------------------------------------
 Center     Atomic      Atomic             Coordinates (Angstroms)
 Number     Number       Type             X           Y           Z
 ---------------------------------------------------------------------
      1          6           0       -6.130139   -2.163745    0.421016
      2          7           0       -5.019371   -2.187660   -0.518144
      3          6           0       -5.022468   -3.243434   -1.518930
      4          6           0       -3.801114   -1.625182   -0.136637
      5          6           0       -2.617672   -1.848163   -0.875958
      6          6           0       -1.411539   -1.249540   -0.509377
      7          6           0       -1.312146   -0.408283    0.604155
      8          6           0       -0.014530    0.290630    1.018265
      9          6           0        1.243345   -0.487570    0.624865
     10          6           0        1.692844   -1.540290    1.433206
     11          6           0        2.811956   -2.301714    1.105568
     12          6           0        3.543815   -2.048805   -0.078586
     13          7           0        4.641791   -2.830544   -0.438714
     14          6           0        5.517859   -2.362835   -1.501866
     15          6           0        5.223321   -3.724242    0.551028
     16          6           0        3.102960   -0.974379   -0.883636
     17          6           0        1.980741   -0.222138   -0.534525
     18          6           0        0.046398    1.757814    0.576380
     19          6           0        0.850910    2.656165    1.294605
     20          6           0        0.960132    3.996554    0.925082
     21          6           0        0.253305    4.450657   -0.189410
     22         17           0        0.380347    6.142230   -0.667730
     23          6           0       -0.555141    3.586083   -0.923105
     24          6           0       -0.655082    2.246786   -0.532190
     25          6           0       -2.481364   -0.205002    1.350021
     26          6           0       -3.694503   -0.794996    1.004246
     27          1           0       -7.004676   -2.614379   -0.051621
     28          1           0       -5.917398   -2.713701    1.353009
     29          1           0       -6.396141   -1.135186    0.685660
     30          1           0       -6.053397   -3.541643   -1.717731
     31          1           0       -4.597483   -2.887553   -2.463126
     32          1           0       -4.457124   -4.136298   -1.203609
     33          1           0       -2.624541   -2.497468   -1.742686
     34          1           0       -0.527094   -1.462153   -1.102392
     35          1           0       -0.022777    0.313720    2.116360
     36          1           0        1.154969   -1.776144    2.349123
     37          1           0        3.112080   -3.093641    1.780529
     38          1           0        4.965922   -2.248258   -2.440459
     39          1           0        6.000794   -1.399286   -1.268360
     40          1           0        6.298464   -3.106468   -1.671960
     41          1           0        4.488421   -4.460359    0.892776
     42          1           0        6.046226   -4.275150    0.092134
     43          1           0        5.612475   -3.192079    1.435175
     44          1           0        3.635426   -0.710149   -1.788857
     45          1           0        1.690058    0.599894   -1.182230
     46          1           0        1.408114    2.300890    2.158072
     47          1           0        1.582366    4.679931    1.492940
     48          1           0       -1.104726    3.951698   -1.783921
     49          1           0       -1.299002    1.580627   -1.097330
     50          1           0       -2.447953    0.431997    2.231679
     51          1           0       -4.557169   -0.605551    1.630940
 ---------------------------------------------------------------------

 SCF Done:  E(RB3LYP) =  -1461.25916892     A.U. after   16 cycles

 Excitation energies and oscillator strengths:

 Excited State   1:      Triplet-A      3.4379 eV  360.64 nm  f=0.0000  <S**2>=2.000
      93 ->100        -0.12472
      94 ->103         0.11922
      96 ->100        -0.14872
      96 ->103         0.19984
      96 ->105         0.26418
      97 -> 98         0.27520
      97 -> 99         0.19451
      97 ->100        -0.21327
      97 ->104        -0.21800
      97 ->106         0.13273
      97 ->108         0.10611
 This state for optimization and/or second-order correction.
 Total Energy, E(TD-HF/TD-DFT) =  -1461.13282730
 Copying the excited state density for this state as the 1-particle RhoCI density.

 Excited State   2:      Triplet-A      3.4557 eV  358.78 nm  f=0.0000  <S**2>=2.000
      93 ->103        -0.13194
      94 -> 98        -0.11293
      94 ->100         0.13931
      96 -> 98        -0.10677
      96 -> 99        -0.11683
      96 ->104         0.23479
      96 ->106        -0.12809
      96 ->108        -0.10608
      97 ->100         0.26484
      97 ->103        -0.19292
      97 ->105        -0.36042

 Excited State   3:      Triplet-A      3.5211 eV  352.12 nm  f=0.0000  <S**2>=2.000
      92 -> 98        -0.13076
      93 -> 98        -0.10176
      95 -> 99        -0.20082
      96 ->102         0.18523
      96 ->103         0.12198
      96 ->105        -0.14568
      97 -> 98         0.40204
      97 -> 99        -0.15445
      97 ->100        -0.16139
      97 ->102         0.14229
      97 ->104         0.14550
      97 ->105        -0.11056

 Excited State   4:      Singlet-A      3.9584 eV  313.22 nm  f=0.0084  <S**2>=0.000
      97 -> 98         0.69958

 Excited State   5:      Singlet-A      4.1551 eV  298.39 nm  f=0.0431  <S**2>=0.000
      97 -> 99         0.69859

 Excited State   6:      Singlet-A      4.1752 eV  296.95 nm  f=0.0241  <S**2>=0.000
      96 -> 98         0.68934

 The electronic state is 1-A.
 Alpha  occ. eigenvalues -- -101.54749 -14.35865 -14.35848 -10.25049 -10.22917
 Alpha  occ. eigenvalues --  -10.22894 -10.22149 -10.22127 -10.22112 -10.22106
 Alpha  occ. eigenvalues --  -10.20454 -10.20309 -10.20266 -10.20181 -10.19798
 Alpha  occ. eigenvalues --  -10.19544 -10.18723 -10.18682 -10.18669 -10.18582
 Alpha  occ. eigenvalues --  -10.18519 -10.18452 -10.18432 -10.18413 -10.18353
 Alpha  occ. eigenvalues --  -10.18301  -9.46261  -7.22659  -7.21698  -7.21674
 Alpha  occ. eigenvalues --   -0.94968  -0.94951  -0.88814  -0.85948  -0.84017
 Alpha  occ. eigenvalues --   -0.83377  -0.78781  -0.75549  -0.74813  -0.74774
 Alpha  occ. eigenvalues --   -0.74307  -0.73469  -0.72258  -0.72187  -0.69049
 Alpha  occ. eigenvalues --   -0.65986  -0.63588  -0.61819  -0.60515  -0.60137
 Alpha  occ. eigenvalues --   -0.58660  -0.57400  -0.56055  -0.52791  -0.52516
 Alpha  occ. eigenvalues --   -0.50718  -0.48898  -0.48192  -0.47852  -0.46738
 Alpha  occ. eigenvalues --   -0.46705  -0.46165  -0.45994  -0.44885  -0.44725
 Alpha  occ. eigenvalues --   -0.43973  -0.43301  -0.42761  -0.42064  -0.41926
 Alpha  occ. eigenvalues --   -0.41786  -0.41050  -0.40887  -0.40499  -0.39960
 Alpha  occ. eigenvalues --   -0.39311  -0.38811  -0.38335  -0.38321  -0.37440
 Alpha  occ. eigenvalues --   -0.36672  -0.36059  -0.35817  -0.34887  -0.34051
 Alpha  occ. eigenvalues --   -0.33171  -0.33006  -0.32019  -0.30961  -0.28565
 Alpha  occ. eigenvalues --   -0.27894  -0.26105  -0.24950  -0.24804  -0.23797
 Alpha  occ. eigenvalues --   -0.19746  -0.18972
 Alpha virt. eigenvalues --   -0.02426  -0.01767  -0.00923  -0.00420  -0.00192
 Alpha virt. eigenvalues --   -0.00166   0.00440   0.00658   0.01053   0.01692
 Alpha virt. eigenvalues --    0.01785   0.01903   0.02298   0.02634   0.02851

 Mulliken charges:
               1
     1  C   -0.306741
     2  N   -0.112716
     3  C   -0.318265
     4  C    0.205312
     5  C   -0.260999
     6  C   -0.451213
     7  C   -0.095588
     8  C    0.463942
     9  C   -0.037323
    10  C    0.189262
    11  C   -0.453014
    12  C    0.159631
    13  N   -0.107371
    14  C   -0.312878
    15  C   -0.300290
    16  C   -0.162099
    17  C   -0.538597
    18  C   -0.088256
    19  C    0.106625
    20  C   -0.418025
    21  C    0.188230
    22  Cl   0.203036
    23  C   -0.214859
    24  C   -0.417306
    25  C    0.232771
    26  C   -0.375199
    27  H    0.130765
    28  H    0.147496
    29  H    0.146387
    30  H    0.130514
    31  H    0.146180
    32  H    0.148352
    33  H    0.105314
    34  H    0.119546
    35  H    0.118100
    36  H    0.106644
    37  H    0.105574
    38  H    0.145876
    39  H    0.148651
    40  H    0.130546
    41  H    0.145854
    42  H    0.130761
    43  H    0.147520
    44  H    0.106205
    45  H    0.116799
    46  H    0.118548
    47  H    0.140574
    48  H    0.141032
    49  H    0.132461
    50  H    0.106348
    51  H    0.105883
 Sum of Mulliken charges =  -0.00000

 Dipole moment (field-independent basis, Debye):
    X=             -0.0256    Y=             -4.4316    Z=              0.0026  Tot=              4.4317
 Quadrupole moment (field-independent basis, Debye-Ang):
   XX=           -130.9478   YY=           -171.8816   ZZ=           -156.8645
   XY=             -1.0092   XZ=              0.1555   YZ=              4.5398

 Normal termination of Gaussian 16 at Wed Sep 17 06:54:58 2025.
