 Gaussian 16, Revision C.02,
 Gaussian 16:  ES64L-G16RevC.02  7-Dec-2021

 ----------------------------------------------------------
 # td=(50-50,nstates=3) b3lyp/6-31+g(d,p) geom=connectivity
 ----------------------------------------------------------

 -------------------
 Title Card Required
 -------------------
 Symbolic Z-matrix:
 Charge =  0 Multiplicity = 1

                         Standard orientation:
 ---------------------------------------------------------------------
 Center     Atomic      Atomic             Coordinates (Angstroms)
 Number     Number       Type             X           Y           Z
 ---------------------------------------------------------------------
      1          6           0        3.132672   -1.464585    1.591096
      2          6           0        2.683007   -2.663896    0.759330
      3          6           0        3.822813   -3.336335   -0.005052
      4          8           0        1.570585   -2.343106   -0.133483
      5          6           0        1.744318   -1.362791   -1.086150
      6          8           0        1.432117   -0.025306   -0.607554
      7          6           0        0.162555    0.321989   -0.341215
      8          6           0       -0.896120   -0.544663   -0.295416
      9          6           0       -2.226509   -0.075011   -0.032066
     10          6           0       -3.310486   -0.950610   -0.000715
     11          6           0       -4.637541   -0.499403    0.266032
     12          7           0       -5.719502   -0.125827    0.484613
     13          6           0       -3.153774   -2.348484   -0.238819
     14          7           0       -3.016871   -3.488467   -0.437608
     15          6           0       -2.423578    1.340203    0.209104
     16          6           0       -1.377274    2.199453    0.184678
     17          6           0       -0.025918    1.753894   -0.089405
     18          6           0        1.016099    2.671212   -0.107262
     19          6           0        2.395239    2.387990   -0.358250
     20          7           0        3.540400    2.280979   -0.542824
     21          6           0        0.759323    4.057233    0.147954
     22          7           0        0.553999    5.184758    0.354709
     23          1           0        3.871598   -1.793079    2.329533
     24          1           0        3.597568   -0.687052    0.977064
     25          1           0        2.288308   -1.023552    2.128398
     26          1           0        2.220750   -3.403029    1.420044
     27          1           0        3.446331   -4.170669   -0.603899
     28          1           0        4.558279   -3.728487    0.704846
     29          1           0        4.351149   -2.638324   -0.663693
     30          1           0        2.774173   -1.258510   -1.433494
     31          1           0        1.070910   -1.581615   -1.920763
     32          1           0       -0.731165   -1.606168   -0.429065
     33          1           0       -3.424111    1.705340    0.413210
     34          1           0       -1.540551    3.255161    0.370826
 ---------------------------------------------------------------------

 SCF Done:  E(RB3LYP) =  -986.309928466     A.U. after   18 cycles

 Excitation energies and oscillator strengths:

 Excited State   1:      Triplet-A      0.6720 eV 1844.93 nm  f=0.0000  <S**2>=2.000
      75 -> 77        -0.11459
      76 -> 77         0.77039
      76 <- 77         0.33696
 This state for optimization and/or second-order correction.
 Total Energy, E(TD-HF/TD-DFT) =  -986.285231992
 Copying the excited state density for this state as the 1-particle RhoCI density.

 Excited State   2:      Triplet-A      2.0979 eV  591.00 nm  f=0.0000  <S**2>=2.000
      75 -> 77         0.68767

 Excited State   3:      Singlet-A      2.5219 eV  491.62 nm  f=0.2316  <S**2>=0.000
      75 -> 77         0.48908
      76 -> 77         0.51288

 Excited State   4:      Triplet-A      3.0364 eV  408.32 nm  f=0.0000  <S**2>=2.000
      72 -> 77         0.62313
      73 -> 77         0.18307
      74 -> 77        -0.12085
      76 -> 78        -0.21142

 Excited State   5:      Singlet-A      3.0417 eV  407.61 nm  f=0.7388  <S**2>=0.000
      75 -> 77         0.50337
      76 -> 77        -0.50402
      76 <- 77         0.13517

 Excited State   6:      Singlet-A      3.1982 eV  387.67 nm  f=0.0027  <S**2>=0.000
      74 -> 77         0.70331

 The electronic state is 1-A.
 Alpha  occ. eigenvalues --  -19.23967 -19.20187 -14.38665 -14.38083 -14.38031
 Alpha  occ. eigenvalues --  -14.37998 -10.33232 -10.32651 -10.31805 -10.30743
 Alpha  occ. eigenvalues --  -10.29728 -10.29110 -10.27809 -10.27539 -10.27404
 Alpha  occ. eigenvalues --  -10.27251 -10.27236 -10.26350 -10.26196 -10.24948
 Alpha  occ. eigenvalues --  -10.20664 -10.20312  -1.13858  -1.07289  -0.96160
 Alpha  occ. eigenvalues --   -0.95687  -0.94226  -0.94019  -0.92868  -0.88869
 Alpha  occ. eigenvalues --   -0.83956  -0.82495  -0.81260  -0.77173  -0.73925
 Alpha  occ. eigenvalues --   -0.71938  -0.68838  -0.67564  -0.63703  -0.63421
 Alpha  occ. eigenvalues --   -0.59821  -0.59112  -0.57677  -0.55175  -0.54312
 Alpha  occ. eigenvalues --   -0.51893  -0.51168  -0.49421  -0.48422  -0.47315
 Alpha  occ. eigenvalues --   -0.46150  -0.45671  -0.44995  -0.44233  -0.42845
 Alpha  occ. eigenvalues --   -0.42284  -0.41629  -0.41454  -0.40711  -0.40432
 Alpha  occ. eigenvalues --   -0.40093  -0.39861  -0.39457  -0.38567  -0.38162
 Alpha  occ. eigenvalues --   -0.37907  -0.37834  -0.37684  -0.37600  -0.36593
 Alpha  occ. eigenvalues --   -0.36227  -0.34391  -0.34095  -0.31583  -0.30215
 Alpha  occ. eigenvalues --   -0.26534
 Alpha virt. eigenvalues --   -0.17567  -0.06811  -0.05576  -0.03980  -0.03431
 Alpha virt. eigenvalues --   -0.01855  -0.00774  -0.00173   0.00051   0.00365
 Alpha virt. eigenvalues --    0.00567   0.00919   0.01465   0.01998   0.02271

 Mulliken charges:
               1
     1  C   -0.427066
     2  C    0.115201
     3  C   -0.518777
     4  O   -0.298890
     5  C    0.257740
     6  O   -0.264980
     7  C   -0.364436
     8  C   -0.103626
     9  C    1.115543
    10  C    0.468463
    11  C   -0.186743
    12  N   -0.472643
    13  C   -0.482639
    14  N   -0.463564
    15  C   -0.648403
    16  C   -0.483717
    17  C    0.842415
    18  C    1.277545
    19  C   -0.176367
    20  N   -0.469126
    21  C   -0.160753
    22  N   -0.457181
    23  H    0.150940
    24  H    0.170915
    25  H    0.155620
    26  H    0.143413
    27  H    0.166342
    28  H    0.157864
    29  H    0.146434
    30  H    0.143142
    31  H    0.145631
    32  H    0.178294
    33  H    0.170992
    34  H    0.172416
 Sum of Mulliken charges =  -0.00000

 Dipole moment (field-independent basis, Debye):
    X=              3.4024    Y=             -2.1653    Z=             -0.0851  Tot=              4.0338
 Quadrupole moment (field-independent basis, Debye-Ang):
   XX=           -158.1900   YY=           -157.3146   ZZ=           -124.8025
   XY=            -26.3211   XZ=              3.8560   YZ=             -2.8823

 Normal termination of Gaussian 16 at Tue Jul 29 15:56:09 2025.
