 Gaussian 16, Revision C.02,
 Gaussian 16:  ES64L-G16RevC.02  7-Dec-2021

 ----------------------------------------------------------
 # td=(50-50,nstates=3) b3lyp/6-31+g(d,p) geom=connectivity
 ----------------------------------------------------------

 -------------------
 Title Card Required
 -------------------
 Symbolic Z-matrix:
 Charge =  0 Multiplicity = 1

                         Standard orientation:
 ---------------------------------------------------------------------
 Center     Atomic      Atomic             Coordinates (Angstroms)
 Number     Number       Type             X           Y           Z
 ---------------------------------------------------------------------
      1          6           0        4.270684    0.410628   -0.670485
      2          6           0        3.381683   -0.322651    0.023875
      3          6           0        3.824145   -1.122498    1.139333
      4          7           0        4.172283   -1.756507    2.050328
      5          6           0        1.938202   -0.371809   -0.287703
      6          6           0        0.995613    0.582214   -0.381686
      7          6           0        1.192692    2.071245   -0.185710
      8          6           0        0.494259    2.891331   -1.287446
      9          6           0        0.781775    2.556751    1.223133
     10          6           0       -0.308672   -0.112465   -0.742662
     11          6           0       -1.515401    0.112949    0.207297
     12          6           0       -2.831877   -0.487995   -0.308158
     13          6           0       -4.021759   -0.336706    0.662097
     14          6           0       -4.401536    1.130535    0.920826
     15          6           0       -5.234523   -1.121920    0.137861
     16          6           0        0.112469   -1.582995   -0.810049
     17          8           0       -0.534700   -2.562053   -1.072791
     18          8           0        1.456180   -1.669118   -0.504044
     19          1           0        3.958464    0.988064   -1.533517
     20          1           0        5.317965    0.437646   -0.389960
     21          1           0        2.267656    2.261955   -0.271173
     22          1           0        0.718114    3.956151   -1.165821
     23          1           0        0.827278    2.588640   -2.286101
     24          1           0       -0.594852    2.778530   -1.246910
     25          1           0        1.050973    3.612043    1.343383
     26          1           0        1.295698    1.985088    2.001868
     27          1           0       -0.294556    2.469041    1.394621
     28          1           0       -0.622631    0.177957   -1.756694
     29          1           0       -1.632060    1.191671    0.339085
     30          1           0       -1.273164   -0.298962    1.195717
     31          1           0       -2.681407   -1.550643   -0.521416
     32          1           0       -3.091433   -0.013402   -1.267307
     33          1           0       -3.724820   -0.784033    1.623155
     34          1           0       -5.262292    1.197322    1.595458
     35          1           0       -3.585420    1.698983    1.379296
     36          1           0       -4.676211    1.632467   -0.016290
     37          1           0       -6.075905   -1.064668    0.837455
     38          1           0       -4.990940   -2.179525   -0.010876
     39          1           0       -5.574806   -0.719091   -0.824715
 ---------------------------------------------------------------------

 SCF Done:  E(RB3LYP) =  -789.463540633     A.U. after   16 cycles

 Excitation energies and oscillator strengths:

 Excited State   1:      Triplet-A      2.8566 eV  434.03 nm  f=0.0000  <S**2>=2.000
      65 -> 68         0.32834
      67 -> 68         0.58456
      67 -> 69         0.12860
 This state for optimization and/or second-order correction.
 Total Energy, E(TD-HF/TD-DFT) =  -789.358562587
 Copying the excited state density for this state as the 1-particle RhoCI density.

 Excited State   2:      Triplet-A      3.5814 eV  346.19 nm  f=0.0000  <S**2>=2.000
      65 -> 68         0.49955
      66 -> 68        -0.15944
      67 -> 68        -0.18891
      67 -> 69        -0.34723
      67 -> 71        -0.13609

 Excited State   3:      Singlet-A      3.9528 eV  313.66 nm  f=0.0678  <S**2>=0.000
      67 -> 68         0.69474

 Excited State   4:      Triplet-A      4.3558 eV  284.64 nm  f=0.0000  <S**2>=2.000
      65 -> 68         0.26248
      66 -> 68        -0.10663
      67 -> 68        -0.32881
      67 -> 69         0.51154
      67 -> 71         0.10420

 Excited State   5:      Singlet-A      4.8378 eV  256.28 nm  f=0.0075  <S**2>=0.000
      66 -> 68         0.66957
      66 -> 69         0.16520
      67 -> 69        -0.10154

 Excited State   6:      Singlet-A      5.1811 eV  239.30 nm  f=0.0640  <S**2>=0.000
      67 -> 69         0.68103

 The electronic state is 1-A.
 Alpha  occ. eigenvalues --  -19.22563 -19.16433 -14.35816 -10.33766 -10.28261
 Alpha  occ. eigenvalues --  -10.27460 -10.24921 -10.24556 -10.23715 -10.22822
 Alpha  occ. eigenvalues --  -10.22786 -10.21177 -10.20341 -10.19884 -10.19877
 Alpha  occ. eigenvalues --  -10.18922 -10.18341 -10.17887  -1.13466  -1.05395
 Alpha  occ. eigenvalues --   -0.92518  -0.86926  -0.84903  -0.82274  -0.79978
 Alpha  occ. eigenvalues --   -0.75985  -0.72694  -0.70893  -0.68992  -0.67847
 Alpha  occ. eigenvalues --   -0.64464  -0.63362  -0.59594  -0.57983  -0.56635
 Alpha  occ. eigenvalues --   -0.55103  -0.50645  -0.49843  -0.48331  -0.47874
 Alpha  occ. eigenvalues --   -0.47102  -0.46024  -0.45008  -0.44578  -0.43995
 Alpha  occ. eigenvalues --   -0.43367  -0.42266  -0.41746  -0.41162  -0.40121
 Alpha  occ. eigenvalues --   -0.39624  -0.39110  -0.38905  -0.37848  -0.37525
 Alpha  occ. eigenvalues --   -0.37278  -0.36814  -0.36432  -0.35988  -0.35480
 Alpha  occ. eigenvalues --   -0.34994  -0.33388  -0.33001  -0.32572  -0.30768
 Alpha  occ. eigenvalues --   -0.28735  -0.25541
 Alpha virt. eigenvalues --   -0.08423  -0.03795  -0.01350  -0.00897  -0.00003
 Alpha virt. eigenvalues --    0.00713   0.01122   0.01368   0.02059   0.02239
 Alpha virt. eigenvalues --    0.02779   0.03271   0.03875   0.04164   0.04288

 Mulliken charges:
               1
     1  C   -0.311106
     2  C    0.005925
     3  C    0.032797
     4  N   -0.497434
     5  C    0.635624
     6  C   -0.490497
     7  C    0.287185
     8  C   -0.559227
     9  C   -0.568792
    10  C    0.233601
    11  C   -0.062299
    12  C   -0.711770
    13  C    0.427982
    14  C   -0.568148
    15  C   -0.613520
    16  C    0.329790
    17  O   -0.443056
    18  O   -0.235865
    19  H    0.155045
    20  H    0.167910
    21  H    0.125277
    22  H    0.150766
    23  H    0.149890
    24  H    0.154072
    25  H    0.148883
    26  H    0.156749
    27  H    0.144384
    28  H    0.181255
    29  H    0.135251
    30  H    0.148565
    31  H    0.178323
    32  H    0.128805
    33  H    0.126136
    34  H    0.145793
    35  H    0.133695
    36  H    0.142867
    37  H    0.142182
    38  H    0.149228
    39  H    0.143734
 Sum of Mulliken charges =  -0.00000

 Dipole moment (field-independent basis, Debye):
    X=             -0.7950    Y=              6.5613    Z=             -2.1850  Tot=              6.9611
 Quadrupole moment (field-independent basis, Debye-Ang):
   XX=           -111.0282   YY=           -123.7661   ZZ=           -116.5271
   XY=             12.0314   XZ=            -14.0293   YZ=             -0.1501

 Normal termination of Gaussian 16 at Tue Jul 29 15:47:48 2025.
