 Gaussian 16, Revision C.02,
 Gaussian 16:  ES64L-G16RevC.02  7-Dec-2021

 ----------------------------------------------------------
 # td=(50-50,nstates=3) b3lyp/6-31+g(d,p) geom=connectivity
 ----------------------------------------------------------

 -------------------
 Title Card Required
 -------------------
 Symbolic Z-matrix:
 Charge =  0 Multiplicity = 1

                         Standard orientation:
 ---------------------------------------------------------------------
 Center     Atomic      Atomic             Coordinates (Angstroms)
 Number     Number       Type             X           Y           Z
 ---------------------------------------------------------------------
      1          6           0       -4.052696   -0.011516   -0.288250
      2          6           0       -2.936594   -0.761055   -0.221900
      3          6           0       -2.930770   -2.091321   -0.778647
      4          7           0       -2.922192   -3.158445   -1.241024
      5          6           0       -1.677933   -0.303064    0.396291
      6          6           0       -0.941397    0.809836    0.227532
      7          6           0       -1.229963    1.986011   -0.674678
      8          6           0       -1.420773    3.283087    0.139843
      9          6           0       -0.160995    2.182144   -1.770463
     10          6           0        0.245931    0.693180    1.169470
     11          6           0        1.637602    0.739366    0.523513
     12          8           0        2.428635    1.640594    0.705140
     13          8           0        1.837896   -0.332425   -0.251969
     14          6           0        3.147803   -0.487297   -0.904439
     15          6           0        4.117890   -1.131988    0.078290
     16          6           0        2.892180   -1.320359   -2.151147
     17          6           0        0.007736   -0.664060    1.846039
     18          8           0        0.654343   -1.209865    2.695762
     19          8           0       -1.142012   -1.208997    1.320797
     20          1           0       -4.087391    0.974810    0.160245
     21          1           0       -4.945300   -0.378678   -0.782591
     22          1           0       -2.175461    1.767958   -1.183399
     23          1           0       -1.703959    4.107070   -0.523426
     24          1           0       -2.203788    3.172602    0.897739
     25          1           0       -0.494272    3.572548    0.647798
     26          1           0       -0.481377    2.972021   -2.458062
     27          1           0       -0.013945    1.266388   -2.350771
     28          1           0        0.801871    2.486168   -1.349183
     29          1           0        0.244388    1.474456    1.936966
     30          1           0        3.490786    0.516972   -1.168573
     31          1           0        5.093693   -1.261976   -0.401545
     32          1           0        4.254686   -0.506019    0.963473
     33          1           0        3.752367   -2.114713    0.392370
     34          1           0        3.829681   -1.459351   -2.698866
     35          1           0        2.176554   -0.826896   -2.815039
     36          1           0        2.497784   -2.306483   -1.886525
 ---------------------------------------------------------------------

 SCF Done:  E(RB3LYP) =  -899.403218650     A.U. after   16 cycles

 Excitation energies and oscillator strengths:

 Excited State   1:      Triplet-A      2.8072 eV  441.66 nm  f=0.0000  <S**2>=2.000
      67 -> 71        -0.28014
      69 -> 71         0.15596
      70 -> 71         0.59579
      70 -> 72         0.11647
 This state for optimization and/or second-order correction.
 Total Energy, E(TD-HF/TD-DFT) =  -899.300054220
 Copying the excited state density for this state as the 1-particle RhoCI density.

 Excited State   2:      Triplet-A      3.6097 eV  343.47 nm  f=0.0000  <S**2>=2.000
      67 -> 71         0.47172
      68 -> 71        -0.13918
      69 -> 71        -0.20305
      70 -> 71         0.18495
      70 -> 72         0.34612
      70 -> 75        -0.10549

 Excited State   3:      Singlet-A      4.0573 eV  305.59 nm  f=0.0801  <S**2>=0.000
      70 -> 71         0.69216

 Excited State   4:      Triplet-A      4.4752 eV  277.05 nm  f=0.0000  <S**2>=2.000
      67 -> 71        -0.23230
      67 -> 72         0.10469
      69 -> 71         0.15296
      70 -> 71        -0.30391
      70 -> 72         0.53159

 Excited State   5:      Singlet-A      4.9747 eV  249.23 nm  f=0.0061  <S**2>=0.000
      67 -> 71         0.15786
      68 -> 71         0.14652
      69 -> 71         0.62904
      69 -> 72         0.18705

 Excited State   6:      Singlet-A      5.1743 eV  239.61 nm  f=0.0504  <S**2>=0.000
      68 -> 71         0.16116
      70 -> 72         0.66226

 The electronic state is 1-A.
 Alpha  occ. eigenvalues --  -19.23430 -19.21885 -19.17301 -19.16852 -14.36117
 Alpha  occ. eigenvalues --  -10.34956 -10.34949 -10.29148 -10.27907 -10.26783
 Alpha  occ. eigenvalues --  -10.25222 -10.25065 -10.24944 -10.23865 -10.23121
 Alpha  occ. eigenvalues --  -10.20370 -10.19905 -10.19689 -10.19217  -1.14467
 Alpha  occ. eigenvalues --   -1.12763  -1.06379  -1.04406  -0.92829  -0.87559
 Alpha  occ. eigenvalues --   -0.85306  -0.82013  -0.79924  -0.75614  -0.70983
 Alpha  occ. eigenvalues --   -0.70916  -0.69771  -0.65880  -0.64397  -0.61801
 Alpha  occ. eigenvalues --   -0.58703  -0.57394  -0.56345  -0.53120  -0.50750
 Alpha  occ. eigenvalues --   -0.50538  -0.49003  -0.48194  -0.47898  -0.47209
 Alpha  occ. eigenvalues --   -0.46218  -0.45495  -0.44512  -0.43861  -0.43195
 Alpha  occ. eigenvalues --   -0.42190  -0.42168  -0.41262  -0.40603  -0.40122
 Alpha  occ. eigenvalues --   -0.40024  -0.38422  -0.38193  -0.37802  -0.37604
 Alpha  occ. eigenvalues --   -0.37433  -0.36760  -0.35942  -0.35418  -0.35163
 Alpha  occ. eigenvalues --   -0.32346  -0.31323  -0.30932  -0.29692  -0.26208
 Alpha virt. eigenvalues --   -0.08939  -0.04309  -0.03112  -0.01573  -0.00198
 Alpha virt. eigenvalues --   -0.00079   0.00910   0.01104   0.01446   0.02302
 Alpha virt. eigenvalues --    0.02614   0.02860   0.03248   0.04237   0.04317

 Mulliken charges:
               1
     1  C   -0.307975
     2  C    0.209937
     3  C   -0.103610
     4  N   -0.484414
     5  C    0.484707
     6  C   -0.466712
     7  C    0.301158
     8  C   -0.556133
     9  C   -0.583731
    10  C    0.586202
    11  C   -0.205882
    12  O   -0.357250
    13  O   -0.162335
    14  C    0.244244
    15  C   -0.490558
    16  C   -0.508876
    17  C    0.325805
    18  O   -0.414023
    19  O   -0.226584
    20  H    0.159849
    21  H    0.170823
    22  H    0.126550
    23  H    0.153795
    24  H    0.146123
    25  H    0.166526
    26  H    0.150004
    27  H    0.155178
    28  H    0.168981
    29  H    0.197590
    30  H    0.155048
    31  H    0.151720
    32  H    0.172762
    33  H    0.164990
    34  H    0.152768
    35  H    0.155907
    36  H    0.167416
 Sum of Mulliken charges =  -0.00000

 Dipole moment (field-independent basis, Debye):
    X=             -1.1814    Y=              4.8234    Z=             -2.6474  Tot=              5.6276
 Quadrupole moment (field-independent basis, Debye-Ang):
   XX=           -100.7469   YY=           -128.9224   ZZ=           -120.5597
   XY=            -19.1219   XZ=             -9.0382   YZ=             -0.4299

 Normal termination of Gaussian 16 at Tue Jul 29 16:02:56 2025.
