 Gaussian 16, Revision C.02,
 Gaussian 16:  ES64L-G16RevC.02  7-Dec-2021

 ----------------------------------------------------------
 # td=(50-50,nstates=3) b3lyp/6-31+g(d,p) geom=connectivity
 ----------------------------------------------------------

 -------------------
 Title Card Required
 -------------------
 Symbolic Z-matrix:
 Charge =  0 Multiplicity = 1

                         Standard orientation:
 ---------------------------------------------------------------------
 Center     Atomic      Atomic             Coordinates (Angstroms)
 Number     Number       Type             X           Y           Z
 ---------------------------------------------------------------------
      1          6           0       -0.845283    4.052795    0.997285
      2          6           0       -0.904796    3.268182   -0.300253
      3          8           0       -0.954363    1.871976    0.024839
      4          6           0       -1.023366    1.049789   -1.108657
      5          7           0       -1.237739   -0.318192   -0.662655
      6          7           0       -2.441774   -0.824738   -0.497002
      7          6           0       -2.253746   -1.994948    0.263045
      8          8           0       -3.118462   -2.777397    0.626645
      9          7           0       -0.862744   -2.114054    0.528570
     10          7           0       -0.312981   -1.070499   -0.036252
     11          6           0        1.093987   -0.795068   -0.008159
     12          6           0        1.820305   -0.769160   -1.200757
     13          6           0        3.193423   -0.520049   -1.147893
     14          6           0        3.823899   -0.322346    0.083512
     15          6           0        3.083592   -0.375501    1.269189
     16          6           0        1.709580   -0.611605    1.231157
     17          1           0       -0.814597    5.125892    0.782872
     18          1           0       -1.725838    3.845689    1.611836
     19          1           0        0.048657    3.787531    1.569149
     20          1           0       -0.019501    3.469809   -0.923476
     21          1           0       -1.799354    3.537200   -0.881977
     22          1           0       -1.887016    1.278956   -1.742643
     23          1           0       -0.098994    1.097553   -1.696982
     24          1           0        1.325551   -0.966596   -2.146482
     25          1           0        3.770268   -0.500889   -2.067164
     26          1           0        4.893123   -0.138032    0.120422
     27          1           0        3.575349   -0.232396    2.226130
     28          1           0        1.116041   -0.661504    2.137007
 ---------------------------------------------------------------------

 SCF Done:  E(RB3LYP) =  -757.674888427     A.U. after   18 cycles

 Excitation energies and oscillator strengths:

 Excited State   1:      Triplet-A      1.2991 eV  954.39 nm  f=0.0000  <S**2>=2.000
      58 -> 59         0.70034
      58 -> 61        -0.21173
      58 <- 59         0.20221
 This state for optimization and/or second-order correction.
 Total Energy, E(TD-HF/TD-DFT) =  -757.627147715
 Copying the excited state density for this state as the 1-particle RhoCI density.

 Excited State   2:      Triplet-A      2.9781 eV  416.32 nm  f=0.0000  <S**2>=2.000
      57 -> 59         0.67933
      57 -> 61        -0.12289

 Excited State   3:      Singlet-A      3.0955 eV  400.53 nm  f=0.0635  <S**2>=0.000
      57 -> 59         0.16629
      58 -> 59         0.67714
      58 -> 61         0.10293

 Excited State   4:      Singlet-A      3.1429 eV  394.50 nm  f=0.0028  <S**2>=0.000
      57 -> 59         0.67004
      57 -> 61        -0.12260
      58 -> 59        -0.16564

 Excited State   5:      Triplet-A      3.4332 eV  361.13 nm  f=0.0000  <S**2>=2.000
      55 -> 59        -0.12935
      55 -> 61        -0.14021
      56 -> 60         0.14947
      58 -> 59         0.17499
      58 -> 61         0.60379

 Excited State   6:      Singlet-A      3.7191 eV  333.37 nm  f=0.0016  <S**2>=0.000
      58 -> 60         0.64920
      58 -> 61        -0.27411

 The electronic state is 1-A.
 Alpha  occ. eigenvalues --  -19.20103 -19.08675 -14.50655 -14.49828 -14.38330
 Alpha  occ. eigenvalues --  -14.37812 -10.32630 -10.28708 -10.28431 -10.27019
 Alpha  occ. eigenvalues --  -10.24389 -10.23898 -10.23758 -10.23586 -10.23513
 Alpha  occ. eigenvalues --  -10.20412  -1.18449  -1.08769  -1.00494  -0.99818
 Alpha  occ. eigenvalues --   -0.91688  -0.88365  -0.81483  -0.79536  -0.79225
 Alpha  occ. eigenvalues --   -0.75350  -0.70021  -0.66199  -0.65234  -0.64240
 Alpha  occ. eigenvalues --   -0.62153  -0.58541  -0.56228  -0.54524  -0.53192
 Alpha  occ. eigenvalues --   -0.52434  -0.51693  -0.48702  -0.48092  -0.47110
 Alpha  occ. eigenvalues --   -0.46666  -0.42962  -0.41634  -0.41284  -0.40652
 Alpha  occ. eigenvalues --   -0.39559  -0.39306  -0.38815  -0.37139  -0.36450
 Alpha  occ. eigenvalues --   -0.36331  -0.35255  -0.31855  -0.30710  -0.29700
 Alpha  occ. eigenvalues --   -0.29577  -0.24005  -0.21283
 Alpha virt. eigenvalues --   -0.08552  -0.05354  -0.05251  -0.02017  -0.00520
 Alpha virt. eigenvalues --   -0.00119   0.01230   0.01432   0.01873   0.02861
 Alpha virt. eigenvalues --    0.03015   0.03975   0.04449   0.04981   0.05397

 Mulliken charges:
               1
     1  C   -0.613122
     2  C    0.082481
     3  O   -0.301695
     4  C   -0.027577
     5  N    0.323233
     6  N   -0.469080
     7  C    0.550096
     8  O   -0.562890
     9  N   -0.077452
    10  N    0.406283
    11  C   -1.621211
    12  C    0.061396
    13  C   -0.148934
    14  C    0.060210
    15  C   -0.184618
    16  C    0.772064
    17  H    0.149986
    18  H    0.171730
    19  H    0.162253
    20  H    0.123245
    21  H    0.129854
    22  H    0.160194
    23  H    0.134133
    24  H    0.141633
    25  H    0.141177
    26  H    0.137990
    27  H    0.143001
    28  H    0.155622
 Sum of Mulliken charges =  -0.00000

 Dipole moment (field-independent basis, Debye):
    X=              8.4070    Y=              7.9398    Z=             -3.0636  Tot=             11.9626
 Quadrupole moment (field-independent basis, Debye-Ang):
   XX=           -105.4765   YY=           -104.9202   ZZ=            -86.1682
   XY=            -20.4472   XZ=              4.9881   YZ=              3.4777

 Normal termination of Gaussian 16 at Wed Sep 17 02:46:01 2025.
