 Gaussian 16, Revision C.02,
 Gaussian 16:  ES64L-G16RevC.02  7-Dec-2021

 ----------------------------------------------------------
 # td=(50-50,nstates=3) b3lyp/6-31+g(d,p) geom=connectivity
 ----------------------------------------------------------

 -------------------
 Title Card Required
 -------------------
 Symbolic Z-matrix:
 Charge =  0 Multiplicity = 1

                         Standard orientation:
 ---------------------------------------------------------------------
 Center     Atomic      Atomic             Coordinates (Angstroms)
 Number     Number       Type             X           Y           Z
 ---------------------------------------------------------------------
      1          6           0        1.045906   -0.266321   -2.898245
      2          6           0        1.952593   -0.386468   -1.694442
      3          6           0        3.331828   -0.567396   -1.872910
      4          6           0        4.203507   -0.674262   -0.790846
      5          6           0        3.708795   -0.604839    0.507686
      6          6           0        2.338798   -0.441324    0.696199
      7          7           0        1.862139   -0.399900    2.095274
      8          8           0        2.695280   -0.191772    2.974428
      9          8           0        0.662993   -0.592042    2.304630
     10          6           0        1.440164   -0.324137   -0.380108
     11          6           0       -0.028747   -0.125570   -0.188613
     12          6           0       -0.633034    1.101838   -0.114659
     13          7           0        0.230536    2.302342   -0.211214
     14          8           0        0.211142    2.903569   -1.281600
     15          8           0        0.904262    2.592197    0.770326
     16          6           0       -2.053479    1.307636    0.052482
     17         17           0       -2.665896    2.928215    0.210068
     18          6           0       -2.912865    0.243987    0.118559
     19          6           0       -2.323831   -1.035791   -0.004794
     20          6           0       -0.926460   -1.246425   -0.161808
     21          7           0       -0.631318   -2.531337   -0.267411
     22          8           0       -1.822670   -3.196026   -0.178277
     23          7           0       -2.905169   -2.245913   -0.009148
     24          8           0       -4.055426   -2.652034    0.087865
     25          1           0        1.620783   -0.371228   -3.821049
     26          1           0        0.274458   -1.043642   -2.895703
     27          1           0        0.541098    0.704914   -2.927024
     28          1           0        3.723658   -0.621455   -2.884344
     29          1           0        5.266995   -0.811420   -0.957114
     30          1           0        4.355669   -0.677857    1.372501
     31          1           0       -3.979449    0.367984    0.259087
 ---------------------------------------------------------------------

 SCF Done:  E(RB3LYP) =  -1629.83283452     A.U. after   19 cycles

 Excitation energies and oscillator strengths:

 Excited State   1:      Triplet-A      1.2312 eV 1006.99 nm  f=0.0000  <S**2>=2.000
      89 -> 90         0.69707
      89 -> 91         0.16540
      89 <- 90         0.22245
 This state for optimization and/or second-order correction.
 Total Energy, E(TD-HF/TD-DFT) =  -1629.78758757
 Copying the excited state density for this state as the 1-particle RhoCI density.

 Excited State   2:      Triplet-A      2.7826 eV  445.57 nm  f=0.0000  <S**2>=2.000
      82 -> 91         0.43591
      82 -> 92         0.33967
      82 -> 96         0.15330
      86 -> 91        -0.12994
      88 -> 91        -0.13511
      89 -> 91         0.27790
      82 <- 91         0.10380

 Excited State   3:      Triplet-A      2.8330 eV  437.64 nm  f=0.0000  <S**2>=2.000
      77 -> 90         0.10111
      77 -> 91        -0.17389
      77 -> 92         0.24183
      79 -> 90        -0.20352
      79 -> 91         0.33459
      79 -> 92        -0.44783
      89 -> 92         0.10924
      79 <- 92        -0.11859

 Excited State   4:      Singlet-A      2.9920 eV  414.39 nm  f=0.0305  <S**2>=0.000
      89 -> 90         0.53391
      89 -> 91        -0.41621
      89 -> 92         0.17293

 Excited State   5:      Singlet-A      3.1993 eV  387.53 nm  f=0.0154  <S**2>=0.000
      89 -> 90         0.23217
      89 -> 91         0.47912
      89 -> 92         0.44524

 Excited State   6:      Singlet-A      3.2811 eV  377.88 nm  f=0.0940  <S**2>=0.000
      89 -> 90        -0.38806
      89 -> 91        -0.28048
      89 -> 92         0.49863

 The electronic state is 1-A.
 Alpha  occ. eigenvalues -- -101.59842 -19.31150 -19.23461 -19.23400 -19.22163
 Alpha  occ. eigenvalues --  -19.21289 -19.21187 -14.61703 -14.59936 -14.57869
 Alpha  occ. eigenvalues --  -14.44282 -10.32040 -10.31131 -10.29969 -10.29295
 Alpha  occ. eigenvalues --  -10.28844 -10.28703 -10.26989 -10.26745 -10.25484
 Alpha  occ. eigenvalues --  -10.24221 -10.24041 -10.23971 -10.21789  -9.51288
 Alpha  occ. eigenvalues --   -7.27749  -7.26704  -7.26666  -1.27353  -1.25291
 Alpha  occ. eigenvalues --   -1.25071  -1.15327  -1.10249  -1.08053  -0.97155
 Alpha  occ. eigenvalues --   -0.93029  -0.92625  -0.91317  -0.88032  -0.84221
 Alpha  occ. eigenvalues --   -0.82819  -0.81470  -0.78018  -0.74072  -0.72317
 Alpha  occ. eigenvalues --   -0.70015  -0.67856  -0.66928  -0.63090  -0.61797
 Alpha  occ. eigenvalues --   -0.60798  -0.59678  -0.58050  -0.56939  -0.56308
 Alpha  occ. eigenvalues --   -0.55661  -0.55516  -0.54929  -0.54135  -0.53656
 Alpha  occ. eigenvalues --   -0.53049  -0.51326  -0.49781  -0.48971  -0.47186
 Alpha  occ. eigenvalues --   -0.46094  -0.45767  -0.45520  -0.44801  -0.44738
 Alpha  occ. eigenvalues --   -0.42695  -0.41147  -0.40425  -0.40022  -0.39392
 Alpha  occ. eigenvalues --   -0.38613  -0.36306  -0.36087  -0.35238  -0.34825
 Alpha  occ. eigenvalues --   -0.34082  -0.33671  -0.32831  -0.32738  -0.31770
 Alpha  occ. eigenvalues --   -0.31091  -0.30418  -0.29333  -0.25721
 Alpha virt. eigenvalues --   -0.13329  -0.11923  -0.11449  -0.06039  -0.04856
 Alpha virt. eigenvalues --   -0.04540  -0.03249  -0.02653  -0.01271  -0.00574
 Alpha virt. eigenvalues --    0.00188   0.00786   0.01651   0.02479   0.03038

 Mulliken charges:
               1
     1  C   -0.431286
     2  C    0.091182
     3  C   -0.325873
     4  C   -0.227334
     5  C   -0.660983
     6  C    0.411825
     7  N   -0.380305
     8  O    0.047640
     9  O    0.012935
    10  C    0.507167
    11  C    0.493586
    12  C   -0.307849
    13  N   -0.433417
    14  O    0.062069
    15  O    0.079664
    16  C   -0.093376
    17  Cl   0.339514
    18  C    0.915367
    19  C   -0.438455
    20  C   -0.182351
    21  N   -0.511672
    22  O    0.437434
    23  N   -0.650848
    24  O    0.083981
    25  H    0.152171
    26  H    0.174330
    27  H    0.189742
    28  H    0.138235
    29  H    0.146430
    30  H    0.177124
    31  H    0.183353
 Sum of Mulliken charges =  -0.00000

 Dipole moment (field-independent basis, Debye):
    X=              1.8377    Y=             -0.0313    Z=             -4.3900  Tot=              4.7592
 Quadrupole moment (field-independent basis, Debye-Ang):
   XX=           -130.5021   YY=           -161.7027   ZZ=           -147.4326
   XY=            -14.8745   XZ=             -9.7652   YZ=              2.8233

 Normal termination of Gaussian 16 at Wed Sep 17 07:03:24 2025.
