 Gaussian 16, Revision C.02,
 Gaussian 16:  ES64L-G16RevC.02  7-Dec-2021

 ----------------------------------------------------------
 # td=(50-50,nstates=3) b3lyp/6-31+g(d,p) geom=connectivity
 ----------------------------------------------------------

 -------------------
 Title Card Required
 -------------------
 Symbolic Z-matrix:
 Charge =  0 Multiplicity = 1

                         Standard orientation:
 ---------------------------------------------------------------------
 Center     Atomic      Atomic             Coordinates (Angstroms)
 Number     Number       Type             X           Y           Z
 ---------------------------------------------------------------------
      1          6           0       -6.033333    0.380941   -0.102673
      2          6           0       -4.617058    0.458828   -0.649698
      3          8           0       -3.823190   -0.481555    0.082710
      4          7           0       -2.456568   -0.416611   -0.377841
      5          6           0       -1.604555   -0.214312    0.810813
      6          6           0       -0.170337   -0.519198    0.483115
      7          6           0        0.802453    0.405909    0.451724
      8          6           0        2.232785    0.202089    0.169023
      9          6           0        3.071052    1.328596    0.080207
     10          6           0        4.433777    1.198503   -0.193155
     11          6           0        4.991720   -0.067729   -0.380710
     12          6           0        4.173288   -1.199902   -0.289736
     13          6           0        2.813512   -1.067835   -0.016952
     14          1           0       -6.678468    1.085636   -0.638121
     15          1           0       -6.445087   -0.625592   -0.226549
     16          1           0       -6.055382    0.632936    0.962198
     17          1           0       -4.195758    1.465824   -0.528565
     18          1           0       -4.590560    0.209248   -1.719219
     19          1           0       -2.285881   -1.358294   -0.736741
     20          1           0       -1.714056    0.826720    1.130680
     21          1           0       -1.947825   -0.857274    1.637519
     22          1           0        0.059413   -1.563738    0.271118
     23          1           0        0.522096    1.439744    0.655401
     24          1           0        2.644036    2.318013    0.224287
     25          1           0        5.057705    2.085315   -0.258501
     26          1           0        6.051643   -0.174569   -0.591844
     27          1           0        4.599039   -2.189742   -0.428376
     28          1           0        2.200751   -1.960847    0.058177
 ---------------------------------------------------------------------

 SCF Done:  E(RB3LYP) =  -558.145586636     A.U. after   14 cycles

 Excitation energies and oscillator strengths:

 Excited State   1:      Triplet-A      2.8281 eV  438.39 nm  f=0.0000  <S**2>=2.000
      44 -> 56         0.10377
      46 -> 50         0.15478
      47 -> 49        -0.10854
      48 -> 49         0.66505
      48 <- 49         0.10149
 This state for optimization and/or second-order correction.
 Total Energy, E(TD-HF/TD-DFT) =  -558.041654082
 Copying the excited state density for this state as the 1-particle RhoCI density.

 Excited State   2:      Triplet-A      4.1180 eV  301.08 nm  f=0.0000  <S**2>=2.000
      44 -> 49        -0.25425
      46 -> 49        -0.35160
      46 -> 50         0.47919
      48 -> 56        -0.16918

 Excited State   3:      Triplet-A      4.2347 eV  292.78 nm  f=0.0000  <S**2>=2.000
      44 -> 49        -0.11034
      46 -> 49         0.39588
      46 -> 50         0.24330
      48 -> 50         0.48482

 Excited State   4:      Singlet-A      4.5615 eV  271.81 nm  f=0.1966  <S**2>=0.000
      47 -> 49         0.48411
      48 -> 49         0.49124
      48 -> 50        -0.10553

 Excited State   5:      Singlet-A      4.7116 eV  263.15 nm  f=0.1345  <S**2>=0.000
      46 -> 49        -0.29353
      47 -> 49         0.43657
      48 -> 49        -0.31330
      48 -> 50         0.33531

 Excited State   6:      Singlet-A      4.8221 eV  257.12 nm  f=0.2243  <S**2>=0.000
      46 -> 49         0.41745
      47 -> 49         0.26006
      48 -> 49        -0.37507
      48 -> 50        -0.32667

 The electronic state is 1-A.
 Alpha  occ. eigenvalues --  -19.17733 -14.37810 -10.23032 -10.21978 -10.21085
 Alpha  occ. eigenvalues --  -10.20460 -10.20242 -10.20184 -10.20132 -10.20084
 Alpha  occ. eigenvalues --  -10.20072 -10.20048 -10.18059  -1.06153  -0.86888
 Alpha  occ. eigenvalues --   -0.86076  -0.80040  -0.75582  -0.75327  -0.72754
 Alpha  occ. eigenvalues --   -0.66612  -0.62116  -0.60645  -0.60506  -0.56661
 Alpha  occ. eigenvalues --   -0.52561  -0.50992  -0.48681  -0.47817  -0.46547
 Alpha  occ. eigenvalues --   -0.45243  -0.44781  -0.42946  -0.42755  -0.41343
 Alpha  occ. eigenvalues --   -0.39815  -0.38166  -0.38022  -0.37091  -0.36408
 Alpha  occ. eigenvalues --   -0.35311  -0.34966  -0.34563  -0.30683  -0.26934
 Alpha  occ. eigenvalues --   -0.26171  -0.24671  -0.23128
 Alpha virt. eigenvalues --   -0.05007  -0.01812   0.00243   0.01007   0.01355
 Alpha virt. eigenvalues --    0.02095   0.02866   0.03017   0.03277   0.03734
 Alpha virt. eigenvalues --    0.04629   0.05274   0.05487   0.06226   0.06624

 Mulliken charges:
               1
     1  C   -0.466024
     2  C    0.012745
     3  O   -0.094298
     4  N   -0.487843
     5  C   -0.850573
     6  C    0.442879
     7  C   -0.449015
     8  C    0.727982
     9  C   -0.303199
    10  C   -0.145151
    11  C   -0.115800
    12  C   -0.256717
    13  C   -0.144837
    14  H    0.145128
    15  H    0.158006
    16  H    0.157753
    17  H    0.127848
    18  H    0.126591
    19  H    0.292433
    20  H    0.134568
    21  H    0.150075
    22  H    0.112112
    23  H    0.114949
    24  H    0.120796
    25  H    0.126549
    26  H    0.125192
    27  H    0.125895
    28  H    0.111955
 Sum of Mulliken charges =  -0.00000

 Dipole moment (field-independent basis, Debye):
    X=              0.5961    Y=             -0.0122    Z=             -0.1203  Tot=              0.6082
 Quadrupole moment (field-independent basis, Debye-Ang):
   XX=            -73.2709   YY=            -72.6318   ZZ=            -84.4785
   XY=             -2.1626   XZ=              0.5349   YZ=              2.1522

 Normal termination of Gaussian 16 at Wed Sep 17 09:13:23 2025.
