 Gaussian 16, Revision C.02,
 Gaussian 16:  ES64L-G16RevC.02  7-Dec-2021

 ----------------------------------------------------------
 # td=(50-50,nstates=3) b3lyp/6-31+g(d,p) geom=connectivity
 ----------------------------------------------------------

 -------------------
 Title Card Required
 -------------------
 Symbolic Z-matrix:
 Charge =  0 Multiplicity = 1

                         Standard orientation:
 ---------------------------------------------------------------------
 Center     Atomic      Atomic             Coordinates (Angstroms)
 Number     Number       Type             X           Y           Z
 ---------------------------------------------------------------------
      1          6           0        4.305537   -0.399232   -0.993295
      2          7           0        3.177963   -0.583138   -0.085815
      3          6           0        3.461897   -0.481144    1.337950
      4          7           0        2.022793   -0.080860   -0.583002
      5          6           0        1.038289    0.237978    0.179621
      6          6           0       -0.251979    0.687687   -0.476591
      7          6           0       -0.706967    1.960454    0.114471
      8          7           0       -1.082301    2.952027    0.590704
      9          6           0       -1.369585   -0.385790   -0.405137
     10          6           0       -1.836903   -0.802710    1.017808
     11          6           0       -3.328192   -1.197372    0.827204
     12          6           0       -3.615014   -0.908232   -0.674383
     13          7           0       -2.575096    0.024255   -1.138952
     14          1           0        5.085981   -1.127246   -0.755025
     15          1           0        3.955541   -0.568618   -2.012299
     16          1           0        4.732407    0.614507   -0.930496
     17          1           0        4.450200   -0.903670    1.526656
     18          1           0        3.446312    0.564092    1.690812
     19          1           0        2.731925   -1.055031    1.918178
     20          1           0        1.055896    0.176693    1.268629
     21          1           0       -0.038773    0.873168   -1.535479
     22          1           0       -0.959513   -1.264961   -0.919295
     23          1           0       -1.233603   -1.623101    1.419244
     24          1           0       -1.748183    0.040831    1.711796
     25          1           0       -3.972464   -0.588966    1.469903
     26          1           0       -3.516057   -2.245632    1.080691
     27          1           0       -3.535548   -1.831298   -1.261976
     28          1           0       -4.608232   -0.488709   -0.855818
     29          1           0       -2.831909    0.972129   -0.861944
 ---------------------------------------------------------------------

 SCF Done:  E(RB3LYP) =  -571.567055152     A.U. after   15 cycles

 Excitation energies and oscillator strengths:

 Excited State   1:      Triplet-A      3.3455 eV  370.60 nm  f=0.0000  <S**2>=2.000
      49 -> 50         0.65811
      49 -> 51        -0.17328
 This state for optimization and/or second-order correction.
 Total Energy, E(TD-HF/TD-DFT) =  -571.444110881
 Copying the excited state density for this state as the 1-particle RhoCI density.

 Excited State   2:      Triplet-A      4.9218 eV  251.91 nm  f=0.0000  <S**2>=2.000
      47 -> 50        -0.66224
      47 -> 51         0.17494

 Excited State   3:      Singlet-A      5.1327 eV  241.56 nm  f=0.1668  <S**2>=0.000
      49 -> 50         0.57259
      49 -> 51         0.39603

 Excited State   4:      Triplet-A      5.1986 eV  238.50 nm  f=0.0000  <S**2>=2.000
      49 -> 50         0.18262
      49 -> 51         0.66696
      49 -> 52        -0.10820

 Excited State   5:      Singlet-A      5.2732 eV  235.12 nm  f=0.0014  <S**2>=0.000
      48 -> 50         0.69895

 Excited State   6:      Singlet-A      5.4844 eV  226.07 nm  f=0.2359  <S**2>=0.000
      49 -> 50        -0.38726
      49 -> 51         0.56741

 The electronic state is 1-A.
 Alpha  occ. eigenvalues --  -14.39639 -14.38454 -14.34495 -14.33141 -10.24555
 Alpha  occ. eigenvalues --  -10.23635 -10.23546 -10.23432 -10.23356 -10.22550
 Alpha  occ. eigenvalues --  -10.21448 -10.19381 -10.19140  -1.02773  -0.93527
 Alpha  occ. eigenvalues --   -0.91106  -0.86861  -0.79903  -0.76548  -0.74280
 Alpha  occ. eigenvalues --   -0.71278  -0.67275  -0.61509  -0.59451  -0.57110
 Alpha  occ. eigenvalues --   -0.54538  -0.51998  -0.50746  -0.48859  -0.48598
 Alpha  occ. eigenvalues --   -0.46735  -0.44619  -0.43493  -0.43104  -0.42141
 Alpha  occ. eigenvalues --   -0.41748  -0.39729  -0.39384  -0.37393  -0.36718
 Alpha  occ. eigenvalues --   -0.35896  -0.35555  -0.35054  -0.33910  -0.33106
 Alpha  occ. eigenvalues --   -0.32490  -0.28967  -0.24226  -0.22984
 Alpha virt. eigenvalues --   -0.02263  -0.00491   0.00414   0.01179   0.01627
 Alpha virt. eigenvalues --    0.02156   0.02368   0.03091   0.03132   0.03470
 Alpha virt. eigenvalues --    0.03985   0.04780   0.04935   0.05649   0.05710

 Mulliken charges:
               1
     1  C   -0.317914
     2  N    0.119828
     3  C   -0.358719
     4  N   -0.144854
     5  C   -0.385763
     6  C    0.266071
     7  C   -0.022497
     8  N   -0.479754
     9  C   -0.362730
    10  C   -0.112271
    11  C   -0.350805
    12  C   -0.165200
    13  N   -0.265198
    14  H    0.144551
    15  H    0.168234
    16  H    0.142135
    17  H    0.151788
    18  H    0.155895
    19  H    0.147895
    20  H    0.124704
    21  H    0.206333
    22  H    0.153809
    23  H    0.147198
    24  H    0.160483
    25  H    0.150541
    26  H    0.143947
    27  H    0.142245
    28  H    0.137397
    29  H    0.302651
 Sum of Mulliken charges =  -0.00000

 Dipole moment (field-independent basis, Debye):
    X=              2.4519    Y=             -3.6132    Z=              1.3475  Tot=              4.5697
 Quadrupole moment (field-independent basis, Debye-Ang):
   XX=            -65.2843   YY=            -93.2473   ZZ=            -83.3179
   XY=              3.6212   XZ=              1.0674   YZ=             -4.1790

 Normal termination of Gaussian 16 at Tue Jul 29 13:02:36 2025.
