 Gaussian 16, Revision C.02,
 Gaussian 16:  ES64L-G16RevC.02  7-Dec-2021

 ----------------------------------------------------------
 # td=(50-50,nstates=3) b3lyp/6-31+g(d,p) geom=connectivity
 ----------------------------------------------------------

 -------------------
 Title Card Required
 -------------------
 Symbolic Z-matrix:
 Charge =  0 Multiplicity = 1

                         Standard orientation:
 ---------------------------------------------------------------------
 Center     Atomic      Atomic             Coordinates (Angstroms)
 Number     Number       Type             X           Y           Z
 ---------------------------------------------------------------------
      1          6           0        0.339209   -2.585322   -1.532958
      2          6           0       -0.237198   -1.483893   -0.987875
      3          6           0       -1.644444   -1.606252   -0.627009
      4          6           0       -2.396145   -0.573792   -0.193885
      5          6           0       -3.891766   -0.686465    0.138443
      6          6           0       -4.336189   -2.162046    0.206530
      7          6           0       -4.178066   -0.038847    1.515789
      8          6           0       -4.732710    0.020659   -0.955871
      9          6           0       -1.715832    0.743811   -0.134874
     10          8           0       -2.367285    1.787612   -0.165400
     11          6           0       -0.197983    0.817500   -0.078600
     12          6           0        0.354172    2.106958    0.596249
     13          6           0       -0.455323    2.368123    1.902989
     14          6           0        1.823001    2.001426    1.066571
     15          6           0        0.219273    3.335439   -0.341347
     16          6           0        0.477158   -0.221540   -0.666228
     17          6           0        1.960431   -0.232227   -1.100471
     18          6           0        2.406176    0.971152   -1.819783
     19          7           0        2.834045    1.838885   -2.462723
     20          6           0        2.988123   -0.693112   -0.072392
     21          7           0        4.272389   -0.339808   -0.187052
     22         16           0        2.619420   -1.783062    1.168200
     23          8           0        3.976429   -2.034231    1.864617
     24          1           0       -0.253761   -3.482178   -1.678838
     25          1           0        1.377628   -2.670705   -1.828018
     26          1           0       -2.077161   -2.591780   -0.757897
     27          1           0       -5.389736   -2.206329    0.500110
     28          1           0       -4.250387   -2.666448   -0.762175
     29          1           0       -3.760978   -2.730010    0.946445
     30          1           0       -5.240480   -0.149542    1.759110
     31          1           0       -3.939813    1.026061    1.517014
     32          1           0       -3.601004   -0.528823    2.308519
     33          1           0       -4.554271   -0.433485   -1.937139
     34          1           0       -5.798823   -0.086781   -0.724087
     35          1           0       -4.493910    1.083040   -1.015842
     36          1           0        0.011586    3.198777    2.441393
     37          1           0       -1.492255    2.634077    1.708365
     38          1           0       -0.430677    1.493288    2.563516
     39          1           0        2.055037    2.898308    1.649211
     40          1           0        2.547655    1.982408    0.254304
     41          1           0        1.984774    1.139036    1.717761
     42          1           0        0.813374    3.214095   -1.250705
     43          1           0       -0.820977    3.505892   -0.618085
     44          1           0        0.591143    4.223911    0.182519
     45          1           0        2.017974   -0.980744   -1.900290
     46          1           0        4.896380   -0.728973    0.522478
     47          1           0        4.588460    0.375876   -0.825849
 ---------------------------------------------------------------------

 SCF Done:  E(RB3LYP) =  -1358.46608638     A.U. after   19 cycles

 Excitation energies and oscillator strengths:

 Excited State   1:      Triplet-A      1.8463 eV  671.51 nm  f=0.0000  <S**2>=2.000
      86 -> 90        -0.10067
      87 -> 90         0.47945
      88 -> 90         0.28497
      89 -> 90        -0.41100
      87 <- 90         0.12296
 This state for optimization and/or second-order correction.
 Total Energy, E(TD-HF/TD-DFT) =  -1358.39823468
 Copying the excited state density for this state as the 1-particle RhoCI density.

 Excited State   2:      Triplet-A      1.9664 eV  630.51 nm  f=0.0000  <S**2>=2.000
      89 -> 91         0.71309
      89 <- 91         0.14932

 Excited State   3:      Singlet-A      2.3422 eV  529.34 nm  f=0.0188  <S**2>=0.000
      89 -> 90         0.70347

 Excited State   4:      Triplet-A      2.4039 eV  515.77 nm  f=0.0000  <S**2>=2.000
      87 -> 90         0.41170
      89 -> 90         0.55830

 Excited State   5:      Singlet-A      2.8814 eV  430.30 nm  f=0.0013  <S**2>=0.000
      87 -> 90        -0.29461
      88 -> 90         0.63190

 Excited State   6:      Singlet-A      3.7256 eV  332.79 nm  f=0.0060  <S**2>=0.000
      85 -> 90         0.33450
      86 -> 90         0.54085
      87 -> 90         0.27831
      88 -> 90         0.11347

 The electronic state is 1-A.
 Alpha  occ. eigenvalues --  -88.97233 -19.15647 -19.13189 -14.40965 -14.37692
 Alpha  occ. eigenvalues --  -10.30819 -10.29887 -10.29573 -10.27090 -10.26032
 Alpha  occ. eigenvalues --  -10.25007 -10.24432 -10.23684 -10.22831 -10.22648
 Alpha  occ. eigenvalues --  -10.22364 -10.22275 -10.18961 -10.18647 -10.18147
 Alpha  occ. eigenvalues --  -10.18031 -10.17944 -10.17537  -8.02251  -5.98759
 Alpha  occ. eigenvalues --   -5.98291  -5.98075  -1.05702  -1.01871  -0.97315
 Alpha  occ. eigenvalues --   -0.94510  -0.90095  -0.85618  -0.83525  -0.82659
 Alpha  occ. eigenvalues --   -0.78337  -0.76594  -0.74747  -0.69956  -0.69626
 Alpha  occ. eigenvalues --   -0.69146  -0.68999  -0.67475  -0.64925  -0.62210
 Alpha  occ. eigenvalues --   -0.60684  -0.59239  -0.57552  -0.56895  -0.54125
 Alpha  occ. eigenvalues --   -0.53829  -0.50795  -0.50168  -0.48647  -0.47406
 Alpha  occ. eigenvalues --   -0.45875  -0.45593  -0.45115  -0.44904  -0.44607
 Alpha  occ. eigenvalues --   -0.44472  -0.43322  -0.42518  -0.41952  -0.41394
 Alpha  occ. eigenvalues --   -0.41002  -0.39819  -0.39711  -0.39156  -0.39020
 Alpha  occ. eigenvalues --   -0.38573  -0.38236  -0.38152  -0.37344  -0.36770
 Alpha  occ. eigenvalues --   -0.36668  -0.35865  -0.35693  -0.35085  -0.34973
 Alpha  occ. eigenvalues --   -0.34534  -0.34085  -0.33628  -0.33046  -0.28582
 Alpha  occ. eigenvalues --   -0.27553  -0.26453  -0.26216  -0.22063
 Alpha virt. eigenvalues --   -0.11322  -0.06774  -0.04123  -0.02271  -0.02142
 Alpha virt. eigenvalues --   -0.01187  -0.00476  -0.00217   0.00461   0.00676
 Alpha virt. eigenvalues --    0.01567   0.01940   0.02379   0.02687   0.03127

 Mulliken charges:
               1
     1  C   -0.509777
     2  C    0.123849
     3  C   -0.315923
     4  C    0.679652
     5  C    0.289662
     6  C   -0.451582
     7  C   -0.542452
     8  C   -0.541280
     9  C   -0.610588
    10  O   -0.408328
    11  C    0.106388
    12  C    0.312557
    13  C   -0.545799
    14  C   -0.382110
    15  C   -0.519849
    16  C    0.078140
    17  C    0.656069
    18  C   -0.115207
    19  N   -0.317984
    20  C   -1.001682
    21  N   -0.353565
    22  S    0.963332
    23  O   -0.677854
    24  H    0.153878
    25  H    0.131251
    26  H    0.129344
    27  H    0.153586
    28  H    0.143424
    29  H    0.154677
    30  H    0.144588
    31  H    0.174805
    32  H    0.145379
    33  H    0.142163
    34  H    0.143455
    35  H    0.185542
    36  H    0.144280
    37  H    0.179534
    38  H    0.149718
    39  H    0.149938
    40  H    0.139131
    41  H    0.165653
    42  H    0.159861
    43  H    0.184125
    44  H    0.142503
    45  H    0.181382
    46  H    0.360829
    47  H    0.325286
 Sum of Mulliken charges =  -0.00000

 Dipole moment (field-independent basis, Debye):
    X=             -1.5698    Y=             -1.8863    Z=             -1.7820  Tot=              3.0328
 Quadrupole moment (field-independent basis, Debye-Ang):
   XX=           -152.1315   YY=           -154.5828   ZZ=           -158.9389
   XY=             13.3066   XZ=            -10.0796   YZ=             17.2207

 Normal termination of Gaussian 16 at Tue Jul 29 15:42:38 2025.
