 Gaussian 16, Revision C.02,
 Gaussian 16:  ES64L-G16RevC.02  7-Dec-2021

 ----------------------------------------------------------
 # td=(50-50,nstates=3) b3lyp/6-31+g(d,p) geom=connectivity
 ----------------------------------------------------------

 -------------------
 Title Card Required
 -------------------
 Symbolic Z-matrix:
 Charge =  0 Multiplicity = 1

                         Standard orientation:
 ---------------------------------------------------------------------
 Center     Atomic      Atomic             Coordinates (Angstroms)
 Number     Number       Type             X           Y           Z
 ---------------------------------------------------------------------
      1          6           0       -4.753508   -1.027220   -0.000182
      2          6           0       -3.401465   -0.483272   -0.000158
      3          6           0       -2.277208   -0.032153   -0.000019
      4          6           0       -0.955760    0.486086    0.000090
      5          7           0       -0.708405    1.781732    0.000062
      6          8           0        0.696900    1.835543    0.000089
      7          6           0        1.132044    0.559786   -0.000062
      8          6           0        2.619582    0.390956   -0.000138
      9         17           0        3.129804   -1.325322    0.000071
     10          7           0        0.178797   -0.315738   -0.000096
     11          1           0       -5.488972   -0.243673   -0.210417
     12          1           0       -4.858448   -1.808300   -0.760837
     13          1           0       -4.995033   -1.468772    0.972871
     14          1           0        3.042809    0.869776   -0.886057
     15          1           0        3.042925    0.870043    0.885581
 ---------------------------------------------------------------------

 SCF Done:  E(RB3LYP) =  -876.487962755     A.U. after   15 cycles

 Excitation energies and oscillator strengths:

 Excited State   1:      Triplet-A      3.3993 eV  364.74 nm  f=0.0000  <S**2>=2.000
      36 -> 41        -0.15413
      40 -> 41         0.65973
      40 -> 43        -0.15159
 This state for optimization and/or second-order correction.
 Total Energy, E(TD-HF/TD-DFT) =  -876.363041420
 Copying the excited state density for this state as the 1-particle RhoCI density.

 Excited State   2:      Triplet-A      4.7379 eV  261.69 nm  f=0.0000  <S**2>=2.000
      39 -> 41         0.63849
      39 -> 43        -0.22164
      40 -> 46         0.14835

 Excited State   3:      Triplet-A      4.8537 eV  255.44 nm  f=0.0000  <S**2>=2.000
      36 -> 41         0.41216
      37 -> 41        -0.32588
      39 -> 46         0.23393
      40 -> 43        -0.31762

 Excited State   4:      Singlet-A      5.0548 eV  245.28 nm  f=0.0001  <S**2>=0.000
      39 -> 41         0.68599
      39 -> 43        -0.15570

 Excited State   5:      Singlet-A      5.3333 eV  232.47 nm  f=0.1480  <S**2>=0.000
      36 -> 41         0.11035
      39 -> 46        -0.16633
      40 -> 41         0.65808

 Excited State   6:      Singlet-A      5.5855 eV  221.98 nm  f=0.0026  <S**2>=0.000
      35 -> 41         0.24913
      38 -> 41         0.65504

 The electronic state is 1-A.
 Alpha  occ. eigenvalues -- -101.56229 -19.27273 -14.41428 -14.36804 -10.32380
 Alpha  occ. eigenvalues --  -10.29491 -10.29050 -10.22752 -10.22451 -10.21019
 Alpha  occ. eigenvalues --   -9.47754  -7.24229  -7.23135  -7.23132  -1.18821
 Alpha  occ. eigenvalues --   -0.96535  -0.91321  -0.87062  -0.80620  -0.74935
 Alpha  occ. eigenvalues --   -0.73361  -0.66790  -0.62934  -0.57017  -0.52948
 Alpha  occ. eigenvalues --   -0.49427  -0.47707  -0.47194  -0.46011  -0.45029
 Alpha  occ. eigenvalues --   -0.44958  -0.44191  -0.37293  -0.36241  -0.33031
 Alpha  occ. eigenvalues --   -0.32817  -0.31668  -0.31213  -0.29124  -0.27158
 Alpha virt. eigenvalues --   -0.06055  -0.01952  -0.01217  -0.00093   0.00340
 Alpha virt. eigenvalues --    0.01343   0.03145   0.03832   0.04791   0.04870
 Alpha virt. eigenvalues --    0.05051   0.05593   0.07461   0.07749   0.07848

 Mulliken charges:
               1
     1  C   -0.732028
     2  C    0.073894
     3  C    0.429806
     4  C    0.826887
     5  N   -0.481093
     6  O    0.076862
     7  C   -0.210525
     8  C   -0.766223
     9  Cl   0.013142
    10  N   -0.231872
    11  H    0.186339
    12  H    0.186338
    13  H    0.185957
    14  H    0.221261
    15  H    0.221256
 Sum of Mulliken charges =  -0.00000

 Dipole moment (field-independent basis, Debye):
    X=             -0.8921    Y=             -0.1120    Z=              0.0018  Tot=              0.8991
 Quadrupole moment (field-independent basis, Debye-Ang):
   XX=            -44.8963   YY=            -70.9846   ZZ=            -63.4879
   XY=             11.3438   XZ=             -0.0099   YZ=             -0.0023

 Normal termination of Gaussian 16 at Wed Sep 17 09:22:30 2025.
