 Gaussian 16, Revision C.02,
 Gaussian 16:  ES64L-G16RevC.02  7-Dec-2021

 ----------------------------------------------------------
 # td=(50-50,nstates=3) b3lyp/6-31+g(d,p) geom=connectivity
 ----------------------------------------------------------

 -------------------
 Title Card Required
 -------------------
 Symbolic Z-matrix:
 Charge =  0 Multiplicity = 1

                         Standard orientation:
 ---------------------------------------------------------------------
 Center     Atomic      Atomic             Coordinates (Angstroms)
 Number     Number       Type             X           Y           Z
 ---------------------------------------------------------------------
      1          6           0       -2.303589    0.663676    3.816457
      2          6           0       -2.348028    0.343266    2.331040
      3          8           0       -2.646564    1.564384    1.625993
      4          6           0       -2.166123    1.886587    0.388861
      5          8           0       -2.310971    3.030436    0.007627
      6          6           0       -1.449864    0.889470   -0.440731
      7          6           0       -1.864331   -0.338326   -0.860956
      8          6           0       -3.106699   -1.063509   -0.513749
      9          6           0       -3.077200   -2.395496   -0.063149
     10          6           0       -4.258253   -3.050809    0.285196
     11          6           0       -5.485945   -2.388657    0.181569
     12          6           0       -5.525705   -1.067799   -0.271482
     13          6           0       -4.345004   -0.407990   -0.618703
     14          7           0       -0.973944   -0.863464   -1.819472
     15          6           0       -1.110629   -2.107337   -2.565435
     16          6           0        0.069035    0.024981   -2.068395
     17          8           0        0.997710   -0.195096   -2.826118
     18          6           0       -0.218085    1.300066   -1.247681
     19          6           0        0.915862    1.944416   -0.537965
     20          6           0        1.644639    3.064671   -0.936992
     21          8           0        1.638799    3.806639   -1.894703
     22          8           0        2.670509    3.284828    0.124379
     23          7           0        2.256063    2.597382    1.266022
     24          7           0        1.508322    1.391727    0.684670
     25          6           0        2.430987    0.227713    0.612220
     26          6           0        2.578609   -0.561999    1.751179
     27          6           0        3.460192   -1.640914    1.727653
     28          6           0        4.183342   -1.896837    0.559232
     29         17           0        5.290797   -3.255381    0.520933
     30          6           0        4.034574   -1.099400   -0.576238
     31          6           0        3.146124   -0.023022   -0.551936
     32          1           0       -2.117333   -0.251596    4.388957
     33          1           0       -1.513366    1.385813    4.045109
     34          1           0       -3.255572    1.088728    4.146081
     35          1           0       -3.131635   -0.387442    2.113669
     36          1           0       -1.396424   -0.071455    1.978380
     37          1           0       -2.127748   -2.912540    0.036749
     38          1           0       -4.220008   -4.076446    0.639989
     39          1           0       -6.404883   -2.900751    0.450663
     40          1           0       -6.475243   -0.548719   -0.359246
     41          1           0       -4.381436    0.615092   -0.979608
     42          1           0       -2.144326   -2.246759   -2.888712
     43          1           0       -0.457253   -2.030017   -3.435701
     44          1           0       -0.799494   -2.974674   -1.973972
     45          1           0       -0.525112    2.053670   -1.991392
     46          1           0        2.025046   -0.337875    2.660116
     47          1           0        3.589274   -2.270405    2.600622
     48          1           0        4.597779   -1.318929   -1.475904
     49          1           0        2.986962    0.586073   -1.434142
     50          1           0        0.795962    1.162811    1.387307
     51          1           0        1.458871    3.151352    1.619240
 ---------------------------------------------------------------------

 SCF Done:  E(RB3LYP) =  -1850.88793586     A.U. after   18 cycles

 Excitation energies and oscillator strengths:

 Excited State   1:      Triplet-A      2.5680 eV  482.81 nm  f=0.0000  <S**2>=2.000
     114 ->116         0.30510
     115 ->116         0.61159
 This state for optimization and/or second-order correction.
 Total Energy, E(TD-HF/TD-DFT) =  -1850.79356507
 Copying the excited state density for this state as the 1-particle RhoCI density.

 Excited State   2:      Singlet-A      2.6794 eV  462.72 nm  f=0.0005  <S**2>=0.000
     115 ->116         0.69763

 Excited State   3:      Triplet-A      2.7940 eV  443.76 nm  f=0.0000  <S**2>=2.000
     114 ->116         0.58363
     114 ->121        -0.14674
     115 ->116        -0.32241

 Excited State   4:      Triplet-A      2.8541 eV  434.41 nm  f=0.0000  <S**2>=2.000
     115 ->117         0.69272

 Excited State   5:      Singlet-A      2.9359 eV  422.31 nm  f=0.0008  <S**2>=0.000
     115 ->117         0.70085

 Excited State   6:      Singlet-A      3.3314 eV  372.16 nm  f=0.0001  <S**2>=0.000
     115 ->118         0.70212

 The electronic state is 1-A.
 Alpha  occ. eigenvalues -- -101.57647 -19.20916 -19.20787 -19.14990 -19.14813
 Alpha  occ. eigenvalues --  -19.11432 -14.51220 -14.46484 -14.40905 -10.33557
 Alpha  occ. eigenvalues --  -10.31017 -10.29108 -10.28832 -10.27942 -10.27533
 Alpha  occ. eigenvalues --  -10.27140 -10.24848 -10.24469 -10.24465 -10.24218
 Alpha  occ. eigenvalues --  -10.23626 -10.23576 -10.23490 -10.23368 -10.23048
 Alpha  occ. eigenvalues --  -10.23003 -10.22981 -10.22786 -10.22440 -10.21098
 Alpha  occ. eigenvalues --  -10.20912  -9.49151  -7.25567  -7.24587  -7.24546
 Alpha  occ. eigenvalues --   -1.14448  -1.10965  -1.06827  -1.03277  -1.02913
 Alpha  occ. eigenvalues --   -1.00691  -0.99160  -0.92316  -0.89553  -0.87169
 Alpha  occ. eigenvalues --   -0.85069  -0.82388  -0.80619  -0.79840  -0.79570
 Alpha  occ. eigenvalues --   -0.78429  -0.78008  -0.74423  -0.73407  -0.71123
 Alpha  occ. eigenvalues --   -0.67457  -0.66799  -0.66085  -0.64381  -0.63983
 Alpha  occ. eigenvalues --   -0.62672  -0.61081  -0.60426  -0.58878  -0.57572
 Alpha  occ. eigenvalues --   -0.56365  -0.55968  -0.53991  -0.51858  -0.51375
 Alpha  occ. eigenvalues --   -0.51282  -0.50892  -0.50388  -0.49756  -0.48905
 Alpha  occ. eigenvalues --   -0.48123  -0.48067  -0.46999  -0.46696  -0.46639
 Alpha  occ. eigenvalues --   -0.46162  -0.45675  -0.44617  -0.43859  -0.43232
 Alpha  occ. eigenvalues --   -0.42745  -0.42637  -0.42271  -0.42034  -0.41692
 Alpha  occ. eigenvalues --   -0.41387  -0.40831  -0.40441  -0.39803  -0.39213
 Alpha  occ. eigenvalues --   -0.38975  -0.38768  -0.38212  -0.37792  -0.36307
 Alpha  occ. eigenvalues --   -0.35964  -0.35126  -0.34681  -0.33780  -0.31031
 Alpha  occ. eigenvalues --   -0.30216  -0.29796  -0.29316  -0.29154  -0.29029
 Alpha  occ. eigenvalues --   -0.28199  -0.28009  -0.25714  -0.24149  -0.20349
 Alpha virt. eigenvalues --   -0.07824  -0.06648  -0.05512  -0.04815  -0.04142
 Alpha virt. eigenvalues --   -0.03465  -0.02140  -0.00996  -0.00965  -0.00440
 Alpha virt. eigenvalues --    0.00040   0.00368   0.00661   0.01083   0.01610

 Mulliken charges:
               1
     1  C   -0.815576
     2  C    0.302506
     3  O   -0.156510
     4  C    0.480978
     5  O   -0.252634
     6  C   -1.209726
     7  C    0.374821
     8  C   -0.196539
     9  C   -0.309276
    10  C   -0.003217
    11  C   -0.166212
    12  C    0.020381
    13  C   -0.206329
    14  N    0.089229
    15  C   -0.142462
    16  C   -0.228615
    17  O   -0.411323
    18  C    1.236576
    19  C   -1.149776
    20  C    0.900753
    21  O   -0.482109
    22  O   -0.051278
    23  N   -0.089662
    24  N   -0.073018
    25  C   -1.430720
    26  C    0.303520
    27  C   -0.306347
    28  C    0.028470
    29  Cl   0.251442
    30  C    0.220029
    31  C   -0.000050
    32  H    0.149448
    33  H    0.151613
    34  H    0.170764
    35  H    0.165598
    36  H    0.114929
    37  H    0.120870
    38  H    0.134583
    39  H    0.135658
    40  H    0.139436
    41  H    0.148502
    42  H    0.167722
    43  H    0.187943
    44  H    0.149721
    45  H    0.220569
    46  H    0.125470
    47  H    0.153894
    48  H    0.158445
    49  H    0.186807
    50  H    0.357218
    51  H    0.333484
 Sum of Mulliken charges =  -0.00000

 Dipole moment (field-independent basis, Debye):
    X=             -4.9927    Y=            -10.2612    Z=              6.0681  Tot=             12.9245
 Quadrupole moment (field-independent basis, Debye-Ang):
   XX=           -184.4635   YY=           -217.4933   ZZ=           -185.2875
   XY=              4.9937   XZ=              7.7808   YZ=             12.2621

 Normal termination of Gaussian 16 at Wed Sep 17 14:34:12 2025.
