 Gaussian 16, Revision C.02,
 Gaussian 16:  ES64L-G16RevC.02  7-Dec-2021

 ----------------------------------------------------------
 # td=(50-50,nstates=3) b3lyp/6-31+g(d,p) geom=connectivity
 ----------------------------------------------------------

 -------------------
 Title Card Required
 -------------------
 Symbolic Z-matrix:
 Charge =  0 Multiplicity = 1

                         Standard orientation:
 ---------------------------------------------------------------------
 Center     Atomic      Atomic             Coordinates (Angstroms)
 Number     Number       Type             X           Y           Z
 ---------------------------------------------------------------------
      1          6           0        4.644655    0.291327   -0.896626
      2          6           0        3.628146    0.893699   -0.251035
      3          6           0        3.640469    2.325121   -0.076283
      4          7           0        3.645760    3.480916    0.051723
      5          6           0        2.465853    0.178271    0.308128
      6          6           0        1.646918   -0.764015   -0.196916
      7          6           0        1.775356   -1.469658   -1.528207
      8          6           0        2.291736   -2.913194   -1.330098
      9          6           0        0.487085   -1.476463   -2.373318
     10          6           0        0.636085   -1.097431    0.889264
     11          6           0       -0.836739   -0.815022    0.606012
     12          6           0       -1.820694   -1.767132    1.068876
     13          6           0       -3.168675   -1.592092    0.906929
     14          6           0       -3.600387   -0.401149    0.247876
     15          7           0       -4.828683    0.004072   -0.042244
     16          8           0       -4.682238    1.210061   -0.678338
     17          7           0       -3.280913    1.547367   -0.777431
     18          8           0       -2.950020    2.593122   -1.325653
     19          6           0       -2.620013    0.533929   -0.194150
     20          6           0       -1.229297    0.345711   -0.017066
     21          6           0        1.109668   -0.219435    2.063710
     22          8           0        0.689524   -0.163714    3.185168
     23          8           0        2.151484    0.564389    1.619706
     24          1           0        4.680426   -0.786648   -1.001717
     25          1           0        5.459895    0.870146   -1.316233
     26          1           0        2.533597   -0.923532   -2.101322
     27          1           0        2.463046   -3.390462   -2.300660
     28          1           0        3.231113   -2.935948   -0.767854
     29          1           0        1.561762   -3.525266   -0.787971
     30          1           0        0.690473   -1.945844   -3.341411
     31          1           0        0.119083   -0.464009   -2.561072
     32          1           0       -0.314601   -2.044567   -1.891419
     33          1           0        0.733123   -2.142969    1.207447
     34          1           0       -1.463658   -2.659071    1.575304
     35          1           0       -3.892305   -2.316995    1.261811
     36          1           0       -0.526095    1.093028   -0.368873
 ---------------------------------------------------------------------

 SCF Done:  E(RB3LYP) =  -1082.53430039     A.U. after   18 cycles

 Excitation energies and oscillator strengths:

 Excited State   1:      Triplet-A      1.2185 eV 1017.54 nm  f=0.0000  <S**2>=2.000
      81 -> 82         0.72623
      81 -> 86        -0.10867
      81 <- 82         0.24149
 This state for optimization and/or second-order correction.
 Total Energy, E(TD-HF/TD-DFT) =  -1082.48952247
 Copying the excited state density for this state as the 1-particle RhoCI density.

 Excited State   2:      Triplet-A      2.7815 eV  445.74 nm  f=0.0000  <S**2>=2.000
      76 -> 83        -0.27662
      80 -> 83         0.60301
      81 -> 83         0.11378

 Excited State   3:      Singlet-A      3.2408 eV  382.57 nm  f=0.0761  <S**2>=0.000
      81 -> 82         0.69734

 Excited State   4:      Triplet-A      3.2968 eV  376.08 nm  f=0.0000  <S**2>=2.000
      75 -> 82         0.27362
      76 -> 82        -0.14103
      77 -> 82         0.43751
      79 -> 82        -0.13764
      80 -> 82        -0.15548
      81 -> 86        -0.37688

 Excited State   5:      Singlet-A      3.5491 eV  349.34 nm  f=0.0030  <S**2>=0.000
      81 -> 83         0.70310

 Excited State   6:      Singlet-A      3.6251 eV  342.01 nm  f=0.0018  <S**2>=0.000
      80 -> 82         0.70152

 The electronic state is 1-A.
 Alpha  occ. eigenvalues --  -19.29754 -19.24247 -19.20720 -19.18136 -14.56446
 Alpha  occ. eigenvalues --  -14.42695 -14.36577 -10.35615 -10.30032 -10.28531
 Alpha  occ. eigenvalues --  -10.28230 -10.27446 -10.26182 -10.25956 -10.25643
 Alpha  occ. eigenvalues --  -10.25528 -10.24986 -10.24650 -10.24559 -10.24531
 Alpha  occ. eigenvalues --  -10.24034 -10.21510 -10.20753  -1.23645  -1.15190
 Alpha  occ. eigenvalues --   -1.13697  -1.07196  -0.93994  -0.93295  -0.90005
 Alpha  occ. eigenvalues --   -0.89022  -0.86965  -0.84808  -0.81515  -0.79296
 Alpha  occ. eigenvalues --   -0.76259  -0.71935  -0.71764  -0.69470  -0.67535
 Alpha  occ. eigenvalues --   -0.65174  -0.63877  -0.62026  -0.59306  -0.57916
 Alpha  occ. eigenvalues --   -0.56710  -0.55902  -0.55508  -0.52714  -0.51714
 Alpha  occ. eigenvalues --   -0.50931  -0.49639  -0.49055  -0.48653  -0.47700
 Alpha  occ. eigenvalues --   -0.47137  -0.46269  -0.45090  -0.44610  -0.44027
 Alpha  occ. eigenvalues --   -0.43365  -0.43122  -0.42337  -0.41862  -0.40870
 Alpha  occ. eigenvalues --   -0.40585  -0.40400  -0.38718  -0.38446  -0.38275
 Alpha  occ. eigenvalues --   -0.38211  -0.37557  -0.36896  -0.35720  -0.32896
 Alpha  occ. eigenvalues --   -0.31806  -0.31443  -0.31326  -0.30450  -0.27210
 Alpha  occ. eigenvalues --   -0.24384
 Alpha virt. eigenvalues --   -0.11734  -0.09647  -0.05304  -0.03391  -0.03078
 Alpha virt. eigenvalues --   -0.02344  -0.01169  -0.00399  -0.00299   0.00399
 Alpha virt. eigenvalues --    0.00735   0.01236   0.01872   0.01962   0.02325

 Mulliken charges:
               1
     1  C   -0.342997
     2  C    0.133728
     3  C   -0.190929
     4  N   -0.465860
     5  C    0.735002
     6  C   -0.629948
     7  C    0.305587
     8  C   -0.484906
     9  C   -0.574194
    10  C    0.107706
    11  C    1.099352
    12  C   -0.241714
    13  C   -0.191576
    14  C   -0.048967
    15  N   -0.383964
    16  O    0.336674
    17  N   -0.632748
    18  O    0.044647
    19  C   -0.116382
    20  C   -0.143590
    21  C    0.237642
    22  O   -0.387972
    23  O   -0.181594
    24  H    0.159685
    25  H    0.173510
    26  H    0.135666
    27  H    0.156857
    28  H    0.145850
    29  H    0.151097
    30  H    0.149157
    31  H    0.158554
    32  H    0.158737
    33  H    0.171217
    34  H    0.131994
    35  H    0.158795
    36  H    0.165883
 Sum of Mulliken charges =  -0.00000

 Dipole moment (field-independent basis, Debye):
    X=              3.6108    Y=             -8.4310    Z=             -2.9887  Tot=              9.6464
 Quadrupole moment (field-independent basis, Debye-Ang):
   XX=           -140.2410   YY=           -146.9557   ZZ=           -144.2716
   XY=             -5.6504   XZ=            -15.1458   YZ=             -0.0515

 Normal termination of Gaussian 16 at Tue Jul 29 15:08:05 2025.
