 Gaussian 16, Revision C.02,
 Gaussian 16:  ES64L-G16RevC.02  7-Dec-2021

 ----------------------------------------------------------
 # td=(50-50,nstates=3) b3lyp/6-31+g(d,p) geom=connectivity
 ----------------------------------------------------------

 -------------------
 Title Card Required
 -------------------
 Symbolic Z-matrix:
 Charge =  0 Multiplicity = 1

                         Standard orientation:
 ---------------------------------------------------------------------
 Center     Atomic      Atomic             Coordinates (Angstroms)
 Number     Number       Type             X           Y           Z
 ---------------------------------------------------------------------
      1          6           0        1.767299   -2.131736    2.958213
      2          6           0        1.168617   -1.897426    1.550183
      3          6           0        0.504649   -3.227236    1.119587
      4          6           0        0.088692   -0.778526    1.591721
      5         14           0       -0.936889   -0.414718    0.036979
      6          6           0       -2.360204   -1.552082   -0.182088
      7          6           0       -3.338307   -2.278943   -0.323956
      8         14           0       -4.801435   -3.396454   -0.546069
      9          6           0       -6.186218   -2.401455   -1.357480
     10          6           0       -4.279146   -4.837396   -1.648207
     11          6           0       -5.333598   -4.014465    1.157202
     12          6           0       -1.581288    1.409530    0.257100
     13          8           0       -0.775612    2.223088    0.715770
     14          6           0       -2.959912    1.780186   -0.139411
     15          6           0       -3.415672    3.030445   -0.073557
     16          6           0       -3.824430    4.225159   -0.005788
     17          6           0       -4.227373    5.483059    0.074136
     18          6           0       -5.586146    5.991484   -0.304864
     19          8           0       -6.405603    4.930843   -0.759043
     20          7           0        2.217964   -1.673480    0.544835
     21          6           0        3.091879   -0.769484    0.294293
     22          6           0        3.894742   -1.080367   -0.910696
     23          6           0        4.971507   -0.371970   -1.296310
     24         17           0        5.817486   -0.748887   -2.774930
     25          6           0        5.475356    0.711912   -0.457221
     26          7           0        6.517655    1.383114   -0.806223
     27          8           0        6.855551    2.351043    0.145394
     28          8           0        4.862695    0.886305    0.732333
     29          6           0        3.420595    0.631992    0.893648
     30          6           0        3.265313    0.818718    2.400085
     31          6           0        2.658422    1.719865    0.119599
     32          1           0        2.117179   -1.215925    3.430701
     33          1           0        1.003379   -2.574241    3.606352
     34          1           0        2.604724   -2.834280    2.895742
     35          1           0        0.145963   -3.170203    0.088266
     36          1           0       -0.341878   -3.473123    1.769391
     37          1           0        1.235895   -4.039786    1.169221
     38          1           0       -0.627974   -1.033892    2.384119
     39          1           0        0.524576    0.181112    1.884233
     40          1           0       -7.071666   -3.029349   -1.512578
     41          1           0       -6.482346   -1.550736   -0.734300
     42          1           0       -5.875013   -2.011722   -2.332649
     43          1           0       -5.117791   -5.525652   -1.807234
     44          1           0       -3.458226   -5.404255   -1.196217
     45          1           0       -3.942113   -4.483548   -2.628381
     46          1           0       -5.610078   -3.181185    1.812109
     47          1           0       -6.201049   -4.679825    1.072927
     48          1           0       -4.527291   -4.572333    1.645388
     49          1           0       -3.606624    0.983482   -0.501113
     50          1           0       -3.534208    6.240206    0.442971
     51          1           0       -6.023049    6.492675    0.576070
     52          1           0       -5.458127    6.765912   -1.080717
     53          1           0       -7.268049    5.283939   -1.010154
     54          1           0        3.553209   -1.931981   -1.486987
     55          1           0        7.644632    2.751381   -0.244853
     56          1           0        3.670921    1.800459    2.658100
     57          1           0        3.830103    0.062769    2.949359
     58          1           0        2.221096    0.793664    2.707464
     59          1           0        3.034302    2.699448    0.429735
     60          1           0        2.800721    1.618755   -0.959987
     61          1           0        1.587836    1.684560    0.334200
     62          1           0       -0.124025   -0.424110   -1.203165
 ---------------------------------------------------------------------

 SCF Done:  E(RB3LYP) =  -2306.48870081     A.U. after   17 cycles

 Excitation energies and oscillator strengths:

 Excited State   1:      Triplet-A      1.8610 eV  666.23 nm  f=0.0000  <S**2>=2.000
     124 ->128         0.70166
     124 <-128         0.16304
 This state for optimization and/or second-order correction.
 Total Energy, E(TD-HF/TD-DFT) =  -2306.42031080
 Copying the excited state density for this state as the 1-particle RhoCI density.

 Excited State   2:      Triplet-A      2.0226 eV  613.00 nm  f=0.0000  <S**2>=2.000
     125 ->128         0.64983
     125 ->134         0.10616
     127 ->128         0.16767

 Excited State   3:      Triplet-A      2.3024 eV  538.50 nm  f=0.0000  <S**2>=2.000
     123 ->129         0.13548
     126 ->129         0.34457
     127 ->129         0.58065
     127 <-129         0.10035

 Excited State   4:      Singlet-A      2.4271 eV  510.84 nm  f=0.0006  <S**2>=0.000
     125 ->128         0.66190
     127 ->128         0.19270

 Excited State   5:      Singlet-A      2.9988 eV  413.44 nm  f=0.0004  <S**2>=0.000
     125 ->128        -0.21185
     126 ->128        -0.17845
     127 ->128         0.64766

 Excited State   6:      Singlet-A      3.1511 eV  393.47 nm  f=0.0023  <S**2>=0.000
     126 ->128         0.66989
     127 ->128         0.20382

 The electronic state is 1-A.
 Alpha  occ. eigenvalues -- -101.55626 -66.15133 -66.14528 -19.20077 -19.19182
 Alpha  occ. eigenvalues --  -19.18260 -19.15616 -14.38566 -14.33519 -10.28914
 Alpha  occ. eigenvalues --  -10.27674 -10.27433 -10.27370 -10.26800 -10.25845
 Alpha  occ. eigenvalues --  -10.24463 -10.24310 -10.23149 -10.22183 -10.21748
 Alpha  occ. eigenvalues --  -10.21027 -10.18801 -10.18775 -10.18327 -10.18291
 Alpha  occ. eigenvalues --  -10.18271 -10.18033 -10.17398 -10.17386 -10.17311
 Alpha  occ. eigenvalues --  -10.17276  -9.47091  -7.23532  -7.22533  -7.22464
 Alpha  occ. eigenvalues --   -5.29611  -5.28832  -3.65576  -3.65468  -3.65404
 Alpha  occ. eigenvalues --   -3.64836  -3.64657  -3.64654  -1.10449  -1.06706
 Alpha  occ. eigenvalues --   -1.05361  -1.04257  -0.92961  -0.89694  -0.85581
 Alpha  occ. eigenvalues --   -0.83130  -0.81874  -0.79318  -0.79282  -0.76790
 Alpha  occ. eigenvalues --   -0.74713  -0.72670  -0.71943  -0.70475  -0.69913
 Alpha  occ. eigenvalues --   -0.68899  -0.68820  -0.68767  -0.66867  -0.65988
 Alpha  occ. eigenvalues --   -0.62957  -0.62056  -0.60098  -0.56947  -0.56045
 Alpha  occ. eigenvalues --   -0.54778  -0.53655  -0.51356  -0.50886  -0.49819
 Alpha  occ. eigenvalues --   -0.48758  -0.48504  -0.48465  -0.48238  -0.47005
 Alpha  occ. eigenvalues --   -0.46549  -0.46149  -0.45409  -0.45194  -0.44858
 Alpha  occ. eigenvalues --   -0.43808  -0.43219  -0.42964  -0.42273  -0.41679
 Alpha  occ. eigenvalues --   -0.41622  -0.41504  -0.40708  -0.40367  -0.40162
 Alpha  occ. eigenvalues --   -0.40102  -0.40091  -0.39562  -0.39308  -0.39008
 Alpha  occ. eigenvalues --   -0.38577  -0.37828  -0.37335  -0.37281  -0.37265
 Alpha  occ. eigenvalues --   -0.37118  -0.36190  -0.35455  -0.35197  -0.34930
 Alpha  occ. eigenvalues --   -0.34087  -0.33674  -0.32820  -0.32286  -0.32165
 Alpha  occ. eigenvalues --   -0.31594  -0.31219  -0.30806  -0.28787  -0.28607
 Alpha  occ. eigenvalues --   -0.28277  -0.27597  -0.26530  -0.25393  -0.23892
 Alpha  occ. eigenvalues --   -0.23641  -0.22985
 Alpha virt. eigenvalues --   -0.10584  -0.07110  -0.02524  -0.02163  -0.02048
 Alpha virt. eigenvalues --   -0.01270  -0.00295   0.00175   0.00362   0.00417
 Alpha virt. eigenvalues --    0.01058   0.01225   0.01482   0.01650   0.02052

 Mulliken charges:
               1
     1  C   -0.340235
     2  C   -0.392432
     3  C   -0.298881
     4  C   -0.485571
     5  Si   1.366793
     6  C   -0.611345
     7  C   -0.595485
     8  Si   1.214185
     9  C   -0.694256
    10  C   -0.669520
    11  C   -0.669474
    12  C   -0.656870
    13  O   -0.315182
    14  C    0.011405
    15  C    0.257043
    16  C    0.469716
    17  C   -0.403121
    18  C   -0.346823
    19  O   -0.529672
    20  N    0.202156
    21  C   -0.720375
    22  C    0.125773
    23  C    0.590150
    24  Cl   0.235156
    25  C   -0.300392
    26  N   -0.394549
    27  O   -0.212843
    28  O   -0.177633
    29  C   -0.142796
    30  C   -0.337090
    31  C   -0.310289
    32  H    0.141484
    33  H    0.148527
    34  H    0.157475
    35  H    0.156289
    36  H    0.144342
    37  H    0.152336
    38  H    0.165090
    39  H    0.169117
    40  H    0.163073
    41  H    0.167550
    42  H    0.168316
    43  H    0.162271
    44  H    0.168011
    45  H    0.168685
    46  H    0.166725
    47  H    0.162733
    48  H    0.165872
    49  H    0.170000
    50  H    0.172711
    51  H    0.146977
    52  H    0.147540
    53  H    0.357174
    54  H    0.155301
    55  H    0.370560
    56  H    0.171165
    57  H    0.160909
    58  H    0.145764
    59  H    0.169733
    60  H    0.162863
    61  H    0.183409
    62  H   -0.109545
 Sum of Mulliken charges =  -0.00000

 Dipole moment (field-independent basis, Debye):
    X=             -7.3909    Y=              2.5980    Z=              1.1699  Tot=              7.9211
 Quadrupole moment (field-independent basis, Debye-Ang):
   XX=           -189.5018   YY=           -169.2493   ZZ=           -210.1135
   XY=            -16.9532   XZ=              8.8212   YZ=             -4.7585

 Normal termination of Gaussian 16 at Wed Sep 17 14:00:05 2025.
