 Gaussian 16, Revision C.02,
 Gaussian 16:  ES64L-G16RevC.02  7-Dec-2021

 ----------------------------------------------------------
 # td=(50-50,nstates=3) b3lyp/6-31+g(d,p) geom=connectivity
 ----------------------------------------------------------

 -------------------
 Title Card Required
 -------------------
 Symbolic Z-matrix:
 Charge =  0 Multiplicity = 1

                         Standard orientation:
 ---------------------------------------------------------------------
 Center     Atomic      Atomic             Coordinates (Angstroms)
 Number     Number       Type             X           Y           Z
 ---------------------------------------------------------------------
      1          6           0        5.267312   -1.048266   -1.862675
      2          6           0        4.172258   -1.199481   -1.370628
      3          6           0        2.846578   -1.413335   -0.772591
      4          7           0        2.469767   -0.286960    0.097182
      5          6           0        3.224848   -0.135073    1.353815
      6          6           0        2.852167   -1.136838    2.453980
      7          6           0        1.171118    0.197662    0.042919
      8          6           0        0.931666    1.595212   -0.030853
      9          6           0        2.023276    2.607684   -0.145318
     10          7           0       -0.333338    2.086232   -0.029820
     11          8           0       -0.555499    3.353340   -0.057730
     12          6           0       -1.412342    1.196045   -0.052436
     13          6           0       -2.729857    1.686872   -0.102284
     14          6           0       -3.789307    0.802089   -0.136493
     15          6           0       -3.539574   -0.588058   -0.119443
     16         17           0       -4.902305   -1.688311   -0.163251
     17          6           0       -2.257253   -1.096180   -0.066869
     18          6           0       -1.178270   -0.193039   -0.037514
     19          7           0        0.125899   -0.687172    0.063917
     20          8           0        0.315822   -1.959877    0.166536
     21          1           0        6.228419   -0.913101   -2.304486
     22          1           0        2.102218   -1.503144   -1.567147
     23          1           0        2.825703   -2.369566   -0.236637
     24          1           0        4.286206   -0.222413    1.097924
     25          1           0        3.072778    0.885922    1.717618
     26          1           0        3.469317   -0.955841    3.341452
     27          1           0        1.800758   -1.039696    2.740910
     28          1           0        3.015815   -2.169649    2.133710
     29          1           0        2.970130    2.119988   -0.372291
     30          1           0        1.763700    3.324986   -0.929898
     31          1           0        2.117056    3.191164    0.778352
     32          1           0       -2.872674    2.760152   -0.115270
     33          1           0       -4.809906    1.165108   -0.176218
     34          1           0       -2.044944   -2.156790   -0.043813
 ---------------------------------------------------------------------

 SCF Done:  E(RB3LYP) =  -1316.67931587     A.U. after   17 cycles

 Excitation energies and oscillator strengths:

 Excited State   1:      Triplet-A      1.1267 eV 1100.43 nm  f=0.0000  <S**2>=2.000
      76 -> 77         0.71960
      76 -> 79         0.15917
      76 <- 77         0.23910
 This state for optimization and/or second-order correction.
 Total Energy, E(TD-HF/TD-DFT) =  -1316.63791075
 Copying the excited state density for this state as the 1-particle RhoCI density.

 Excited State   2:      Triplet-A      2.7888 eV  444.58 nm  f=0.0000  <S**2>=2.000
      68 -> 77        -0.12347
      75 -> 77         0.65043
      76 -> 78         0.17955

 Excited State   3:      Singlet-A      3.0112 eV  411.75 nm  f=0.0659  <S**2>=0.000
      75 -> 77        -0.22966
      76 -> 77         0.64843
      76 -> 79        -0.14428

 Excited State   4:      Triplet-A      3.1992 eV  387.55 nm  f=0.0000  <S**2>=2.000
      73 -> 77        -0.12950
      75 -> 77        -0.18306
      76 -> 78         0.65619

 Excited State   5:      Singlet-A      3.2950 eV  376.28 nm  f=0.0398  <S**2>=0.000
      72 -> 77        -0.11750
      75 -> 77         0.55444
      76 -> 77         0.20827
      76 -> 78        -0.33433
      76 -> 79        -0.10107

 Excited State   6:      Singlet-A      3.5806 eV  346.26 nm  f=0.0478  <S**2>=0.000
      72 -> 77        -0.13526
      73 -> 77         0.47906
      75 -> 77         0.14233
      76 -> 78         0.45518

 The electronic state is 1-A.
 Alpha  occ. eigenvalues -- -101.57249 -19.15027 -19.14804 -14.50107 -14.49742
 Alpha  occ. eigenvalues --  -14.37557 -10.30207 -10.28565 -10.27743 -10.27490
 Alpha  occ. eigenvalues --  -10.27379 -10.25559 -10.23810 -10.23616 -10.23350
 Alpha  occ. eigenvalues --  -10.23293 -10.20807 -10.20641 -10.20056 -10.18961
 Alpha  occ. eigenvalues --   -9.48745  -7.25163  -7.24182  -7.24137  -1.13516
 Alpha  occ. eigenvalues --   -1.12268  -0.97512  -0.94168  -0.91138  -0.86703
 Alpha  occ. eigenvalues --   -0.85785  -0.80871  -0.79902  -0.79097  -0.75998
 Alpha  occ. eigenvalues --   -0.73776  -0.72062  -0.68662  -0.65978  -0.63849
 Alpha  occ. eigenvalues --   -0.62846  -0.61562  -0.56305  -0.54861  -0.53828
 Alpha  occ. eigenvalues --   -0.52631  -0.51834  -0.49925  -0.49597  -0.48737
 Alpha  occ. eigenvalues --   -0.48144  -0.47210  -0.47010  -0.46690  -0.44942
 Alpha  occ. eigenvalues --   -0.43634  -0.43075  -0.42645  -0.41967  -0.41738
 Alpha  occ. eigenvalues --   -0.41100  -0.40480  -0.39478  -0.38636  -0.36350
 Alpha  occ. eigenvalues --   -0.35298  -0.33413  -0.30824  -0.29637  -0.29228
 Alpha  occ. eigenvalues --   -0.28470  -0.27996  -0.27751  -0.27629  -0.24843
 Alpha  occ. eigenvalues --   -0.21707
 Alpha virt. eigenvalues --   -0.10093  -0.05923  -0.02674  -0.00915  -0.00258
 Alpha virt. eigenvalues --    0.00226   0.00816   0.01040   0.01427   0.01769
 Alpha virt. eigenvalues --    0.02534   0.02739   0.02970   0.03342   0.03851

 Mulliken charges:
               1
     1  C   -0.503044
     2  C    0.307248
     3  C   -0.139445
     4  N    0.025984
     5  C   -0.096165
     6  C   -0.437882
     7  C    0.660295
     8  C   -0.169197
     9  C   -0.780873
    10  N   -0.470446
    11  O    0.059769
    12  C   -0.194776
    13  C   -0.641869
    14  C   -0.107697
    15  C    0.292382
    16  Cl   0.271550
    17  C   -0.244784
    18  C    0.298087
    19  N   -0.598100
    20  O    0.061976
    21  H    0.204695
    22  H    0.175981
    23  H    0.191408
    24  H    0.157580
    25  H    0.141080
    26  H    0.140683
    27  H    0.160164
    28  H    0.155843
    29  H    0.180906
    30  H    0.188829
    31  H    0.180934
    32  H    0.183202
    33  H    0.156089
    34  H    0.189592
 Sum of Mulliken charges =  -0.00000

 Dipole moment (field-independent basis, Debye):
    X=              1.6624    Y=              0.4447    Z=              0.4361  Tot=              1.7752
 Quadrupole moment (field-independent basis, Debye-Ang):
   XX=           -110.9329   YY=           -139.9235   ZZ=           -123.5207
   XY=             -0.3774   XZ=              1.3375   YZ=              0.7090

 Normal termination of Gaussian 16 at Wed Sep 10 14:41:39 2025.
