 Gaussian 16, Revision C.02,
 Gaussian 16:  ES64L-G16RevC.02  7-Dec-2021

 ----------------------------------------------------------
 # td=(50-50,nstates=3) b3lyp/6-31+g(d,p) geom=connectivity
 ----------------------------------------------------------

 -------------------
 Title Card Required
 -------------------
 Symbolic Z-matrix:
 Charge =  0 Multiplicity = 1

                         Standard orientation:
 ---------------------------------------------------------------------
 Center     Atomic      Atomic             Coordinates (Angstroms)
 Number     Number       Type             X           Y           Z
 ---------------------------------------------------------------------
      1          6           0        3.154815   -0.021672    1.290177
      2          6           0        2.720915   -0.721201    0.000015
      3          6           0        3.155167   -0.021423   -1.289898
      4          8           0        1.314083   -1.078135   -0.000221
      5          6           0        0.277646   -0.195750   -0.000129
      6          6           0        0.363016    1.205369   -0.000056
      7          6           0       -0.804769    1.977142    0.000033
      8          6           0       -2.064071    1.387481    0.000046
      9          6           0       -2.147420   -0.017653   -0.000011
     10          6           0       -3.433663   -0.657904    0.000012
     11          7           0       -4.478694   -1.170215    0.000030
     12          6           0       -0.989135   -0.801899   -0.000096
     13          1           0        4.248919   -0.010023    1.338822
     14          1           0        2.809357    1.012487    1.359996
     15          1           0        2.782456   -0.568828    2.161127
     16          1           0        3.176219   -1.716526   -0.000028
     17          1           0        2.783150   -0.568500   -2.161047
     18          1           0        4.249284   -0.009645   -1.338176
     19          1           0        2.809617    1.012705   -1.359692
     20          1           0        1.319930    1.707095   -0.000063
     21          1           0       -0.718593    3.059546    0.000086
     22          1           0       -2.966716    1.987542    0.000108
     23          1           0       -1.050430   -1.884206   -0.000140
 ---------------------------------------------------------------------

 SCF Done:  E(RB3LYP) =  -517.677741034     A.U. after   15 cycles

 Excitation energies and oscillator strengths:

 Excited State   1:      Triplet-A      3.3656 eV  368.39 nm  f=0.0000  <S**2>=2.000
      42 -> 44         0.40969
      43 -> 44         0.45616
      43 -> 45         0.32449
 This state for optimization and/or second-order correction.
 Total Energy, E(TD-HF/TD-DFT) =  -517.554056987
 Copying the excited state density for this state as the 1-particle RhoCI density.

 Excited State   2:      Triplet-A      3.6316 eV  341.41 nm  f=0.0000  <S**2>=2.000
      42 -> 44        -0.36074
      42 -> 45         0.11797
      43 -> 44         0.53157
      43 -> 45        -0.25777

 Excited State   3:      Triplet-A      4.1955 eV  295.51 nm  f=0.0000  <S**2>=2.000
      42 -> 44        -0.43146
      43 -> 45         0.54970

 Excited State   4:      Singlet-A      4.4963 eV  275.75 nm  f=0.0476  <S**2>=0.000
      42 -> 45        -0.21574
      43 -> 44         0.66058

 Excited State   5:      Singlet-A      5.3580 eV  231.40 nm  f=0.0277  <S**2>=0.000
      42 -> 44         0.47841
      43 -> 44         0.13372
      43 -> 45         0.49176

 Excited State   6:      Singlet-A      5.6514 eV  219.39 nm  f=0.0005  <S**2>=0.000
      43 -> 46         0.68748
      43 -> 47         0.14170

 The electronic state is 1-A.
 Alpha  occ. eigenvalues --  -19.19712 -14.34404 -10.27841 -10.27153 -10.24717
 Alpha  occ. eigenvalues --  -10.23576 -10.22032 -10.21782 -10.21765 -10.21694
 Alpha  occ. eigenvalues --  -10.20177 -10.20177  -1.07921  -0.91338  -0.88055
 Alpha  occ. eigenvalues --   -0.81628  -0.78893  -0.76110  -0.71668  -0.66872
 Alpha  occ. eigenvalues --   -0.65185  -0.61401  -0.54858  -0.52364  -0.50768
 Alpha  occ. eigenvalues --   -0.49597  -0.46963  -0.46766  -0.45276  -0.43198
 Alpha  occ. eigenvalues --   -0.42377  -0.41113  -0.40837  -0.39443  -0.38653
 Alpha  occ. eigenvalues --   -0.37260  -0.36367  -0.36009  -0.33726  -0.33465
 Alpha  occ. eigenvalues --   -0.33159  -0.27368  -0.24489
 Alpha virt. eigenvalues --   -0.05817  -0.02610  -0.01110   0.00125   0.01345
 Alpha virt. eigenvalues --    0.01667   0.02497   0.02847   0.03465   0.03863
 Alpha virt. eigenvalues --    0.04840   0.05507   0.05590   0.05889   0.06111

 Mulliken charges:
               1
     1  C   -0.479010
     2  C    0.272740
     3  C   -0.478992
     4  O   -0.306488
     5  C   -0.517422
     6  C    0.757019
     7  C   -0.193635
     8  C   -0.148224
     9  C    0.526944
    10  C   -0.228315
    11  N   -0.533118
    12  C   -0.273839
    13  H    0.151839
    14  H    0.145966
    15  H    0.165917
    16  H    0.140243
    17  H    0.165917
    18  H    0.151836
    19  H    0.145960
    20  H    0.106113
    21  H    0.133941
    22  H    0.144261
    23  H    0.150348
 Sum of Mulliken charges =  -0.00000

 Dipole moment (field-independent basis, Debye):
    X=              6.2805    Y=              2.5707    Z=              0.0003  Tot=              6.7863
 Quadrupole moment (field-independent basis, Debye-Ang):
   XX=            -86.0995   YY=            -69.6642   ZZ=            -73.6711
   XY=             -9.0782   XZ=              0.0006   YZ=             -0.0001

 Normal termination of Gaussian 16 at Wed Sep 17 09:05:14 2025.
