 Gaussian 16, Revision C.02,
 Gaussian 16:  ES64L-G16RevC.02  7-Dec-2021

 ----------------------------------------------------------
 # td=(50-50,nstates=3) b3lyp/6-31+g(d,p) geom=connectivity
 ----------------------------------------------------------

 -------------------
 Title Card Required
 -------------------
 Symbolic Z-matrix:
 Charge =  0 Multiplicity = 1

                         Standard orientation:
 ---------------------------------------------------------------------
 Center     Atomic      Atomic             Coordinates (Angstroms)
 Number     Number       Type             X           Y           Z
 ---------------------------------------------------------------------
      1          6           0        5.543311    0.251853    0.282240
      2          6           0        4.240630    0.391969   -0.052332
      3          6           0        3.725414    1.644702   -0.538529
      4          7           0        3.306489    2.656650   -0.928710
      5          6           0        3.308022   -0.706009    0.063502
      6          6           0        2.004780   -1.013040   -0.146779
      7          6           0        0.729397   -0.398465   -0.624971
      8          6           0        0.222931   -1.129140   -1.886485
      9          6           0       -0.311265   -0.383036    0.544039
     10          6           0       -1.661570    0.239953    0.207790
     11          6           0       -2.792632   -0.581473   -0.053069
     12          6           0       -2.735208   -2.111187    0.026086
     13          6           0       -3.096016   -2.594326    1.447708
     14          6           0       -3.610437   -2.823983   -1.021792
     15          6           0       -4.024946    0.025810   -0.330432
     16          6           0       -4.160114    1.411296   -0.361133
     17          6           0       -3.052860    2.212300   -0.105399
     18          6           0       -1.799515    1.651852    0.180179
     19          6           0       -0.647355    2.613139    0.486673
     20          6           0       -0.390404    3.608074   -0.662995
     21          6           0       -0.881491    3.359231    1.817234
     22          6           0        2.370245   -2.378588    0.345284
     23          8           0        1.916360   -3.454910    0.562434
     24          8           0        3.752968   -1.968434    0.541964
     25          1           0        5.908110   -0.701370    0.647291
     26          1           0        6.237793    1.079031    0.192518
     27          1           0        0.945763    0.638337   -0.903647
     28          1           0       -0.724681   -0.697589   -2.220114
     29          1           0        0.948378   -1.034367   -2.700306
     30          1           0        0.067389   -2.195802   -1.695970
     31          1           0       -0.441514   -1.408106    0.896146
     32          1           0        0.142089    0.154560    1.383113
     33          1           0       -1.710226   -2.431124   -0.175399
     34          1           0       -3.010628   -3.684625    1.520833
     35          1           0       -2.439050   -2.150753    2.203217
     36          1           0       -4.125472   -2.314945    1.699565
     37          1           0       -3.406532   -3.900122   -1.002505
     38          1           0       -3.405955   -2.457657   -2.033217
     39          1           0       -4.680483   -2.696412   -0.826699
     40          1           0       -4.895789   -0.591334   -0.524642
     41          1           0       -5.124140    1.861899   -0.580765
     42          1           0       -3.164051    3.292479   -0.123119
     43          1           0        0.273062    2.038484    0.609302
     44          1           0        0.498459    4.211255   -0.451966
     45          1           0       -0.222927    3.087263   -1.611344
     46          1           0       -1.235555    4.290764   -0.802490
     47          1           0       -0.025632    4.002590    2.051317
     48          1           0       -1.020617    2.658716    2.647753
     49          1           0       -1.773338    3.993434    1.765998
 ---------------------------------------------------------------------

 SCF Done:  E(RB3LYP) =  -1020.48775444     A.U. after   17 cycles

 Excitation energies and oscillator strengths:

 Excited State   1:      Triplet-A      1.8764 eV  660.75 nm  f=0.0000  <S**2>=2.000
      81 -> 88         0.13827
      85 -> 88         0.61745
      86 -> 88        -0.30928
      85 <- 88         0.12483
 This state for optimization and/or second-order correction.
 Total Energy, E(TD-HF/TD-DFT) =  -1020.41879710
 Copying the excited state density for this state as the 1-particle RhoCI density.

 Excited State   2:      Triplet-A      2.8624 eV  433.15 nm  f=0.0000  <S**2>=2.000
      87 -> 88         0.70034

 Excited State   3:      Singlet-A      2.8649 eV  432.76 nm  f=0.0089  <S**2>=0.000
      86 -> 88         0.37263
      87 -> 88         0.60031

 Excited State   4:      Singlet-A      2.8738 eV  431.43 nm  f=0.0383  <S**2>=0.000
      86 -> 88         0.59874
      87 -> 88        -0.37331

 Excited State   5:      Triplet-A      2.9219 eV  424.32 nm  f=0.0000  <S**2>=2.000
      85 -> 88         0.29910
      86 -> 88         0.62773

 Excited State   6:      Singlet-A      3.4676 eV  357.55 nm  f=0.1396  <S**2>=0.000
      81 -> 88        -0.16220
      85 -> 88         0.68009

 The electronic state is 1-A.
 Alpha  occ. eigenvalues --  -19.21115 -19.19740 -14.37581 -10.35578 -10.30897
 Alpha  occ. eigenvalues --  -10.28806 -10.26736 -10.26002 -10.24002 -10.22790
 Alpha  occ. eigenvalues --  -10.20301 -10.20278 -10.19960 -10.19938 -10.19857
 Alpha  occ. eigenvalues --  -10.19827 -10.19262 -10.19101 -10.18708 -10.18683
 Alpha  occ. eigenvalues --  -10.18035 -10.17993 -10.17940 -10.17529  -1.13609
 Alpha  occ. eigenvalues --   -1.07875  -0.94360  -0.87100  -0.86793  -0.84258
 Alpha  occ. eigenvalues --   -0.81519  -0.79183  -0.78261  -0.74816  -0.72380
 Alpha  occ. eigenvalues --   -0.70845  -0.69333  -0.68728  -0.68455  -0.66096
 Alpha  occ. eigenvalues --   -0.63658  -0.62874  -0.59863  -0.57598  -0.55240
 Alpha  occ. eigenvalues --   -0.54124  -0.53973  -0.51784  -0.50340  -0.49993
 Alpha  occ. eigenvalues --   -0.49386  -0.49122  -0.47244  -0.45781  -0.45269
 Alpha  occ. eigenvalues --   -0.44356  -0.44287  -0.43783  -0.42978  -0.42581
 Alpha  occ. eigenvalues --   -0.42443  -0.42072  -0.41276  -0.40710  -0.40569
 Alpha  occ. eigenvalues --   -0.39641  -0.39123  -0.38671  -0.38311  -0.38102
 Alpha  occ. eigenvalues --   -0.37511  -0.37311  -0.36918  -0.36737  -0.35591
 Alpha  occ. eigenvalues --   -0.35534  -0.34784  -0.34547  -0.33351  -0.32988
 Alpha  occ. eigenvalues --   -0.32368  -0.31906  -0.31648  -0.31086  -0.26524
 Alpha  occ. eigenvalues --   -0.24144  -0.24005
 Alpha virt. eigenvalues --   -0.11947  -0.04743  -0.01746  -0.01452  -0.01130
 Alpha virt. eigenvalues --   -0.00262   0.00219   0.00935   0.01071   0.01285
 Alpha virt. eigenvalues --    0.02195   0.02601   0.02943   0.03078   0.03321

 Mulliken charges:
               1
     1  C   -0.099984
     2  C    1.262592
     3  C   -0.972328
     4  N   -0.434917
     5  C    0.066976
     6  C    0.116574
     7  C   -0.320795
     8  C   -0.513496
     9  C   -0.399298
    10  C   -0.345687
    11  C   -0.049597
    12  C    0.385247
    13  C   -0.604439
    14  C   -0.576805
    15  C    0.119157
    16  C   -0.286754
    17  C   -0.006994
    18  C   -0.198196
    19  C    0.567466
    20  C   -0.605086
    21  C   -0.576664
    22  C    0.694193
    23  O   -0.424523
    24  O   -0.397442
    25  H    0.192768
    26  H    0.175937
    27  H    0.142189
    28  H    0.167241
    29  H    0.148871
    30  H    0.160743
    31  H    0.146577
    32  H    0.147254
    33  H    0.116153
    34  H    0.144939
    35  H    0.143536
    36  H    0.151774
    37  H    0.147725
    38  H    0.150844
    39  H    0.140366
    40  H    0.109113
    41  H    0.122139
    42  H    0.114366
    43  H    0.102848
    44  H    0.158033
    45  H    0.144364
    46  H    0.137370
    47  H    0.143739
    48  H    0.143831
    49  H    0.148079
 Sum of Mulliken charges =  -0.00000

 Dipole moment (field-independent basis, Debye):
    X=              1.3302    Y=              0.7182    Z=              0.0881  Tot=              1.5143
 Quadrupole moment (field-independent basis, Debye-Ang):
   XX=           -126.7928   YY=           -162.9760   ZZ=           -149.6459
   XY=              4.0759   XZ=              2.9841   YZ=              6.6509

 Normal termination of Gaussian 16 at Tue Jul 29 07:15:25 2025.
