 Gaussian 16, Revision C.02,
 Gaussian 16:  ES64L-G16RevC.02  7-Dec-2021

 ----------------------------------------------------------
 # td=(50-50,nstates=3) b3lyp/6-31+g(d,p) geom=connectivity
 ----------------------------------------------------------

 -------------------
 Title Card Required
 -------------------
 Symbolic Z-matrix:
 Charge =  0 Multiplicity = 1

                         Standard orientation:
 ---------------------------------------------------------------------
 Center     Atomic      Atomic             Coordinates (Angstroms)
 Number     Number       Type             X           Y           Z
 ---------------------------------------------------------------------
      1          6           0       -5.358025    0.905397    0.204974
      2          8           0       -4.409492   -0.159609    0.119688
      3          6           0       -3.095508    0.121980    0.046483
      4          6           0       -2.567136    1.377519    0.046130
      5          6           0       -1.145114    1.638128   -0.034264
      6          6           0       -0.673471    2.939586   -0.027746
      7          6           0        0.761298    3.418056   -0.103609
      8          6           0       -1.635037    3.994108    0.060184
      9          7           0       -2.389384    4.881531    0.130982
     10          6           0       -0.281644    0.453026   -0.120272
     11          8           0        1.041651    0.699139   -0.196848
     12          6           0        1.966640   -0.402353   -0.292142
     13          6           0        3.372922    0.186346   -0.368528
     14          7           0        4.349191   -0.903081   -0.428606
     15          6           0        5.616616   -0.549684   -1.090184
     16          6           0        6.513049    0.109028   -0.009729
     17          6           0        6.000751   -0.506404    1.321661
     18          6           0        4.782885   -1.381619    0.899176
     19          6           0       -0.815693   -0.806312   -0.120050
     20          6           0       -2.227850   -1.052681   -0.035300
     21          6           0       -2.712658   -2.359348   -0.032000
     22          6           0       -4.080633   -2.762666    0.045017
     23          7           0       -5.156070   -3.208022    0.103010
     24          6           0       -1.792238   -3.451401   -0.108761
     25          7           0       -1.026888   -4.328488   -0.170189
     26          1           0       -6.331881    0.419526    0.252335
     27          1           0       -5.192846    1.501872    1.109220
     28          1           0       -5.302741    1.547415   -0.681308
     29          1           0       -3.224797    2.233941    0.108604
     30          1           0        1.354244    3.023192    0.725826
     31          1           0        1.240566    3.083371   -1.027837
     32          1           0        0.791617    4.508247   -0.068692
     33          1           0        1.852440   -1.047398    0.586884
     34          1           0        1.754569   -0.991666   -1.190661
     35          1           0        3.448432    0.781947   -1.283888
     36          1           0        3.525066    0.874695    0.481350
     37          1           0        6.079615   -1.478328   -1.446668
     38          1           0        5.435927    0.082814   -1.963647
     39          1           0        6.383403    1.196638   -0.010908
     40          1           0        7.574764   -0.088792   -0.185693
     41          1           0        6.763475   -1.111404    1.821024
     42          1           0        5.702344    0.275618    2.026949
     43          1           0        3.957165   -1.346951    1.615565
     44          1           0        5.084318   -2.431037    0.802650
     45          1           0       -0.165820   -1.667745   -0.186445
 ---------------------------------------------------------------------

 SCF Done:  E(RB3LYP) =  -1105.46364734     A.U. after   17 cycles

 Excitation energies and oscillator strengths:

 Excited State   1:      Triplet-A      0.9430 eV 1314.81 nm  f=0.0000  <S**2>=2.000
      89 -> 90         0.73649
      89 <- 90         0.25179
 This state for optimization and/or second-order correction.
 Total Energy, E(TD-HF/TD-DFT) =  -1105.42899345
 Copying the excited state density for this state as the 1-particle RhoCI density.

 Excited State   2:      Triplet-A      2.0209 eV  613.52 nm  f=0.0000  <S**2>=2.000
      87 -> 90         0.68375
      88 -> 90        -0.13253

 Excited State   3:      Singlet-A      2.3065 eV  537.55 nm  f=0.0009  <S**2>=0.000
      88 -> 90         0.70104

 Excited State   4:      Triplet-A      2.3130 eV  536.02 nm  f=0.0000  <S**2>=2.000
      87 -> 90         0.13384
      88 -> 90         0.68902

 Excited State   5:      Singlet-A      2.6899 eV  460.93 nm  f=0.0154  <S**2>=0.000
      87 -> 90         0.68916
      89 -> 90         0.13341

 Excited State   6:      Singlet-A      2.9952 eV  413.94 nm  f=0.8578  <S**2>=0.000
      87 -> 90        -0.13227
      89 -> 90         0.69568
      89 <- 90        -0.14802

 The electronic state is 1-A.
 Alpha  occ. eigenvalues --  -19.23202 -19.22341 -14.36602 -14.35950 -14.35113
 Alpha  occ. eigenvalues --  -14.34887 -10.30877 -10.30057 -10.28086 -10.27604
 Alpha  occ. eigenvalues --  -10.27391 -10.27390 -10.26680 -10.26550 -10.25592
 Alpha  occ. eigenvalues --  -10.25323 -10.24639 -10.24162 -10.23119 -10.23099
 Alpha  occ. eigenvalues --  -10.22678 -10.22615 -10.22232 -10.20127 -10.20070
 Alpha  occ. eigenvalues --   -1.11786  -1.11149  -0.95367  -0.93593  -0.93343
 Alpha  occ. eigenvalues --   -0.91384  -0.90545  -0.86724  -0.82346  -0.81636
 Alpha  occ. eigenvalues --   -0.79304  -0.76651  -0.76218  -0.74050  -0.72620
 Alpha  occ. eigenvalues --   -0.70099  -0.68102  -0.65540  -0.63160  -0.60178
 Alpha  occ. eigenvalues --   -0.59417  -0.59371  -0.57960  -0.56823  -0.54444
 Alpha  occ. eigenvalues --   -0.52683  -0.52604  -0.50617  -0.50414  -0.50282
 Alpha  occ. eigenvalues --   -0.48959  -0.48346  -0.47326  -0.46582  -0.45775
 Alpha  occ. eigenvalues --   -0.45124  -0.43986  -0.43907  -0.43107  -0.42455
 Alpha  occ. eigenvalues --   -0.41725  -0.41339  -0.40298  -0.39161  -0.38759
 Alpha  occ. eigenvalues --   -0.38698  -0.38472  -0.38111  -0.37590  -0.37319
 Alpha  occ. eigenvalues --   -0.37231  -0.36574  -0.36034  -0.35901  -0.35535
 Alpha  occ. eigenvalues --   -0.35255  -0.35233  -0.33883  -0.33690  -0.33139
 Alpha  occ. eigenvalues --   -0.32345  -0.26283  -0.24110  -0.23870
 Alpha virt. eigenvalues --   -0.14018  -0.04609  -0.02001  -0.01847  -0.01336
 Alpha virt. eigenvalues --   -0.00674  -0.00378   0.00286   0.00524   0.00804
 Alpha virt. eigenvalues --    0.01208   0.01655   0.02109   0.02418   0.02797

 Mulliken charges:
               1
     1  C   -0.130573
     2  O   -0.334018
     3  C   -0.388909
     4  C   -0.827136
     5  C    0.445357
     6  C    1.555136
     7  C   -0.551581
     8  C   -0.369263
     9  N   -0.494035
    10  C    0.149161
    11  O   -0.394712
    12  C    0.733769
    13  C   -1.184976
    14  N   -0.038185
    15  C   -0.137957
    16  C   -0.235732
    17  C   -0.288505
    18  C   -0.123997
    19  C   -0.256113
    20  C   -0.045286
    21  C    1.509325
    22  C   -0.115690
    23  N   -0.522662
    24  C   -0.516747
    25  N   -0.483579
    26  H    0.169580
    27  H    0.155678
    28  H    0.155765
    29  H    0.147771
    30  H    0.182425
    31  H    0.182410
    32  H    0.164365
    33  H    0.141193
    34  H    0.164990
    35  H    0.139480
    36  H    0.142812
    37  H    0.150021
    38  H    0.131025
    39  H    0.144932
    40  H    0.146122
    41  H    0.148168
    42  H    0.146825
    43  H    0.128415
    44  H    0.151306
    45  H    0.153625
 Sum of Mulliken charges =  -0.00000

 Dipole moment (field-independent basis, Debye):
    X=              6.4703    Y=              4.6991    Z=              0.2410  Tot=              8.0003
 Quadrupole moment (field-independent basis, Debye-Ang):
   XX=           -144.2137   YY=           -196.3967   ZZ=           -147.6566
   XY=            -10.9609   XZ=              1.0249   YZ=             -2.8576

 Normal termination of Gaussian 16 at Wed Aug 27 20:48:43 2025.
