 Gaussian 16, Revision C.02,
 Gaussian 16:  ES64L-G16RevC.02  7-Dec-2021

 ----------------------------------------------------------
 # td=(50-50,nstates=3) b3lyp/6-31+g(d,p) geom=connectivity
 ----------------------------------------------------------

 -------------------
 Title Card Required
 -------------------
 Symbolic Z-matrix:
 Charge =  0 Multiplicity = 1

                         Standard orientation:
 ---------------------------------------------------------------------
 Center     Atomic      Atomic             Coordinates (Angstroms)
 Number     Number       Type             X           Y           Z
 ---------------------------------------------------------------------
      1          6           0       -6.734275   -1.616605    0.818460
      2          6           0       -5.441177   -0.877416    1.179733
      3          6           0       -4.703124   -0.322439   -0.046467
      4          6           0       -3.405286    0.414761    0.315309
      5          6           0       -2.711952    0.980807   -0.922348
      6          8           0       -1.518081    1.728226   -0.602884
      7          6           0       -0.333032    1.109782   -0.403939
      8          6           0       -0.181756   -0.250425   -0.468079
      9          6           0        1.067815   -0.915474   -0.254392
     10          6           0        1.145547   -2.309945   -0.339960
     11          6           0        2.306736   -3.116885   -0.150197
     12          7           0        3.185289   -3.872084   -0.016808
     13          6           0       -0.035531   -3.053814   -0.644003
     14          7           0       -1.016836   -3.634512   -0.891496
     15          6           0        2.207161   -0.060797    0.056240
     16          8           0        3.370767   -0.725041    0.247621
     17          6           0        4.564704   -0.000775    0.566722
     18          6           0        5.687080   -1.010001    0.727464
     19          6           0        2.061041    1.291231    0.133321
     20          6           0        0.804405    1.990165   -0.096596
     21          6           0        0.729161    3.367597   -0.034152
     22          6           0       -0.500680    4.189429   -0.344891
     23          6           0        1.902701    4.232396    0.352237
     24          1           0       -7.236131   -1.999525    1.713327
     25          1           0       -7.438237   -0.955291    0.299232
     26          1           0       -6.531494   -2.469328    0.160350
     27          1           0       -4.771920   -1.556440    1.724580
     28          1           0       -5.669759   -0.052028    1.868103
     29          1           0       -5.372637    0.357826   -0.593164
     30          1           0       -4.474952   -1.149762   -0.732713
     31          1           0       -2.731195   -0.266783    0.846327
     32          1           0       -3.622803    1.243848    1.000718
     33          1           0       -3.353642    1.717621   -1.413653
     34          1           0       -2.476235    0.201400   -1.655461
     35          1           0       -1.036725   -0.876477   -0.678892
     36          1           0        4.781633    0.710666   -0.242531
     37          1           0        4.403868    0.567775    1.493568
     38          1           0        6.617756   -0.487729    0.972642
     39          1           0        5.459935   -1.718738    1.527976
     40          1           0        5.834501   -1.576517   -0.195625
     41          1           0        2.935050    1.883290    0.351617
     42          1           0       -0.943424    3.923204   -1.307205
     43          1           0       -1.284292    4.037280    0.405910
     44          1           0       -0.245867    5.252563   -0.357639
     45          1           0        2.774170    3.701491    0.730503
     46          1           0        2.218604    4.837903   -0.508796
     47          1           0        1.585892    4.944875    1.124286
 ---------------------------------------------------------------------

 SCF Done:  E(RB3LYP) =  -998.422304397     A.U. after   16 cycles

 Excitation energies and oscillator strengths:

 Excited State   1:      Triplet-A      1.2046 eV 1029.22 nm  f=0.0000  <S**2>=2.000
      84 -> 85         0.72469
      84 <- 85         0.20073
 This state for optimization and/or second-order correction.
 Total Energy, E(TD-HF/TD-DFT) =  -998.378034679
 Copying the excited state density for this state as the 1-particle RhoCI density.

 Excited State   2:      Triplet-A      2.3253 eV  533.20 nm  f=0.0000  <S**2>=2.000
      83 -> 85         0.69333

 Excited State   3:      Singlet-A      3.0577 eV  405.48 nm  f=0.0411  <S**2>=0.000
      83 -> 85         0.68609
      84 -> 85         0.15167

 Excited State   4:      Singlet-A      3.1703 eV  391.08 nm  f=0.7946  <S**2>=0.000
      83 -> 85        -0.15186
      84 -> 85         0.69371
      84 <- 85        -0.13281

 Excited State   5:      Triplet-A      3.6393 eV  340.68 nm  f=0.0000  <S**2>=2.000
      80 -> 85        -0.13739
      82 -> 85         0.53249
      84 -> 86         0.37008
      84 -> 87        -0.13928

 Excited State   6:      Singlet-A      4.6430 eV  267.04 nm  f=0.0033  <S**2>=0.000
      82 -> 85        -0.38264
      84 -> 86         0.56036
      84 -> 87        -0.17346

 The electronic state is 1-A.
 Alpha  occ. eigenvalues --  -19.21468 -19.20218 -14.33962 -14.32796 -10.29121
 Alpha  occ. eigenvalues --  -10.27866 -10.26535 -10.26154 -10.25421 -10.25366
 Alpha  occ. eigenvalues --  -10.25105 -10.23534 -10.23499 -10.22758 -10.21612
 Alpha  occ. eigenvalues --  -10.21599 -10.21004 -10.20614 -10.20382 -10.19785
 Alpha  occ. eigenvalues --  -10.19237 -10.18977 -10.18158  -1.09899  -1.09072
 Alpha  occ. eigenvalues --   -0.91448  -0.89444  -0.88752  -0.85149  -0.82329
 Alpha  occ. eigenvalues --   -0.80598  -0.79594  -0.77466  -0.75697  -0.73755
 Alpha  occ. eigenvalues --   -0.72257  -0.69932  -0.67471  -0.65264  -0.63183
 Alpha  occ. eigenvalues --   -0.61050  -0.59253  -0.58844  -0.57319  -0.55943
 Alpha  occ. eigenvalues --   -0.54175  -0.51626  -0.50217  -0.50148  -0.49252
 Alpha  occ. eigenvalues --   -0.47686  -0.47211  -0.46993  -0.45826  -0.44959
 Alpha  occ. eigenvalues --   -0.43605  -0.43232  -0.42938  -0.41941  -0.41705
 Alpha  occ. eigenvalues --   -0.40984  -0.40839  -0.40080  -0.39797  -0.39398
 Alpha  occ. eigenvalues --   -0.39275  -0.38028  -0.37623  -0.36837  -0.36288
 Alpha  occ. eigenvalues --   -0.36210  -0.35914  -0.35575  -0.34980  -0.34377
 Alpha  occ. eigenvalues --   -0.33864  -0.33612  -0.33535  -0.33333  -0.31779
 Alpha  occ. eigenvalues --   -0.31255  -0.30620  -0.24391  -0.21576
 Alpha virt. eigenvalues --   -0.10861  -0.01687  -0.01548  -0.00375   0.00237
 Alpha virt. eigenvalues --    0.00302   0.00681   0.01104   0.01239   0.01560
 Alpha virt. eigenvalues --    0.02195   0.02594   0.02811   0.03443   0.03833

 Mulliken charges:
               1
     1  C   -0.659642
     2  C   -0.101831
     3  C   -0.322373
     4  C    0.073214
     5  C   -0.158759
     6  O   -0.304181
     7  C   -0.470436
     8  C   -0.408777
     9  C    0.183947
    10  C    1.643275
    11  C   -0.092226
    12  N   -0.549028
    13  C   -0.438338
    14  N   -0.498949
    15  C    0.092169
    16  O   -0.348891
    17  C    0.405154
    18  C   -0.873993
    19  C   -0.285426
    20  C   -0.158930
    21  C    0.950217
    22  C   -0.565080
    23  C   -0.705911
    24  H    0.147038
    25  H    0.143476
    26  H    0.152317
    27  H    0.145284
    28  H    0.135936
    29  H    0.134174
    30  H    0.148911
    31  H    0.154915
    32  H    0.145945
    33  H    0.147761
    34  H    0.143917
    35  H    0.133577
    36  H    0.132915
    37  H    0.133591
    38  H    0.143403
    39  H    0.176659
    40  H    0.176275
    41  H    0.100288
    42  H    0.182414
    43  H    0.181628
    44  H    0.142616
    45  H    0.144861
    46  H    0.175643
    47  H    0.171254
 Sum of Mulliken charges =  -0.00000

 Dipole moment (field-independent basis, Debye):
    X=             -0.9484    Y=             10.6042    Z=              0.9787  Tot=             10.6914
 Quadrupole moment (field-independent basis, Debye-Ang):
   XX=           -127.6643   YY=           -161.0487   ZZ=           -141.0513
   XY=             13.8391   XZ=              2.1587   YZ=             -3.5746

 Normal termination of Gaussian 16 at Wed Sep 10 15:06:15 2025.
