 Gaussian 16, Revision C.02,
 Gaussian 16:  ES64L-G16RevC.02  7-Dec-2021

 ----------------------------------------------------------
 # td=(50-50,nstates=3) b3lyp/6-31+g(d,p) geom=connectivity
 ----------------------------------------------------------

 -------------------
 Title Card Required
 -------------------
 Symbolic Z-matrix:
 Charge =  0 Multiplicity = 1

                         Standard orientation:
 ---------------------------------------------------------------------
 Center     Atomic      Atomic             Coordinates (Angstroms)
 Number     Number       Type             X           Y           Z
 ---------------------------------------------------------------------
      1          6           0       -3.362335   -0.591058    0.978632
      2          8           0       -2.623397   -1.096393   -0.148268
      3          6           0       -1.260916   -0.991716   -0.092631
      4          6           0       -0.503743   -2.169270   -0.149116
      5          6           0        0.884124   -2.112317   -0.167777
      6          6           0        1.543877   -0.871688   -0.111561
      7          6           0        2.974689   -0.809582   -0.101965
      8          7           0        4.138540   -0.792303   -0.085007
      9          6           0        0.790166    0.318700   -0.058878
     10          8           0        1.440240    1.519353   -0.086487
     11          6           0        1.398025    2.290642    1.129735
     12          6           0       -0.614309    0.259347   -0.072291
     13          8           0       -1.351787    1.419473   -0.045202
     14          6           0       -1.511374    2.051244   -1.330801
     15          1           0       -4.412511   -0.775503    0.748013
     16          1           0       -3.085452   -1.140387    1.886409
     17          1           0       -3.189270    0.478492    1.117991
     18          1           0       -1.027686   -3.118143   -0.185459
     19          1           0        1.470941   -3.023122   -0.214462
     20          1           0        1.954091    3.204705    0.918548
     21          1           0        0.366855    2.531043    1.403438
     22          1           0        1.890174    1.742781    1.941033
     23          1           0       -2.107054    2.948137   -1.153394
     24          1           0       -0.537725    2.327746   -1.747513
     25          1           0       -2.041819    1.385088   -2.019983
 ---------------------------------------------------------------------

 SCF Done:  E(RB3LYP) =  -668.083135555     A.U. after   16 cycles

 Excitation energies and oscillator strengths:

 Excited State   1:      Triplet-A      3.3093 eV  374.65 nm  f=0.0000  <S**2>=2.000
      50 -> 53        -0.29833
      51 -> 52         0.61801
 This state for optimization and/or second-order correction.
 Total Energy, E(TD-HF/TD-DFT) =  -667.961519332
 Copying the excited state density for this state as the 1-particle RhoCI density.

 Excited State   2:      Triplet-A      4.0881 eV  303.28 nm  f=0.0000  <S**2>=2.000
      50 -> 52         0.66691
      51 -> 53        -0.18892

 Excited State   3:      Triplet-A      4.2099 eV  294.51 nm  f=0.0000  <S**2>=2.000
      50 -> 53         0.61103
      51 -> 52         0.30942

 Excited State   4:      Singlet-A      4.7269 eV  262.29 nm  f=0.0112  <S**2>=0.000
      50 -> 52         0.56424
      51 -> 53         0.41636

 Excited State   5:      Singlet-A      5.0220 eV  246.88 nm  f=0.1841  <S**2>=0.000
      49 -> 52         0.23845
      50 -> 53        -0.19805
      51 -> 52         0.62388

 Excited State   6:      Singlet-A      5.4203 eV  228.74 nm  f=0.0394  <S**2>=0.000
      49 -> 52         0.64597
      50 -> 53         0.15799
      51 -> 52        -0.18472

 The electronic state is 1-A.
 Alpha  occ. eigenvalues --  -19.19522 -19.19459 -19.19435 -14.34125 -10.28100
 Alpha  occ. eigenvalues --  -10.27696 -10.27092 -10.25173 -10.24943 -10.24920
 Alpha  occ. eigenvalues --  -10.24442 -10.23483 -10.22784 -10.21621  -1.09280
 Alpha  occ. eigenvalues --   -1.07728  -1.06251  -0.91057  -0.87910  -0.79335
 Alpha  occ. eigenvalues --   -0.78067  -0.73066  -0.71612  -0.69789  -0.64242
 Alpha  occ. eigenvalues --   -0.62486  -0.57002  -0.54358  -0.53887  -0.51345
 Alpha  occ. eigenvalues --   -0.49648  -0.49468  -0.47656  -0.47207  -0.45993
 Alpha  occ. eigenvalues --   -0.45648  -0.44449  -0.43373  -0.41688  -0.40164
 Alpha  occ. eigenvalues --   -0.37676  -0.37575  -0.36792  -0.36419  -0.33941
 Alpha  occ. eigenvalues --   -0.33518  -0.32111  -0.30796  -0.28859  -0.26269
 Alpha  occ. eigenvalues --   -0.25444
 Alpha virt. eigenvalues --   -0.05620  -0.03478  -0.00227   0.00826   0.01106
 Alpha virt. eigenvalues --    0.01506   0.01617   0.02838   0.03078   0.03836
 Alpha virt. eigenvalues --    0.03981   0.04232   0.04750   0.06324   0.06488

 Mulliken charges:
               1
     1  C   -0.128984
     2  O   -0.347686
     3  C    0.114719
     4  C   -0.087726
     5  C   -0.096657
     6  C    0.802583
     7  C   -0.076526
     8  N   -0.532901
     9  C   -0.080567
    10  O   -0.364119
    11  C   -0.112343
    12  C   -0.261507
    13  O   -0.399190
    14  C   -0.121314
    15  H    0.149621
    16  H    0.139821
    17  H    0.170629
    18  H    0.146024
    19  H    0.152453
    20  H    0.153948
    21  H    0.164671
    22  H    0.149388
    23  H    0.148023
    24  H    0.164851
    25  H    0.152790
 Sum of Mulliken charges =  -0.00000

 Dipole moment (field-independent basis, Debye):
    X=             -5.2184    Y=              1.1720    Z=              1.1540  Tot=              5.4715
 Quadrupole moment (field-independent basis, Debye-Ang):
   XX=           -101.7624   YY=            -72.9749   ZZ=            -80.0241
   XY=              1.5345   XZ=              0.4740   YZ=             -0.5245

 Normal termination of Gaussian 16 at Wed Aug 27 20:42:24 2025.
