 Gaussian 16, Revision C.02,
 Gaussian 16:  ES64L-G16RevC.02  7-Dec-2021

 ----------------------------------------------------------
 # td=(50-50,nstates=3) b3lyp/6-31+g(d,p) geom=connectivity
 ----------------------------------------------------------

 -------------------
 Title Card Required
 -------------------
 Symbolic Z-matrix:
 Charge =  0 Multiplicity = 1

                         Standard orientation:
 ---------------------------------------------------------------------
 Center     Atomic      Atomic             Coordinates (Angstroms)
 Number     Number       Type             X           Y           Z
 ---------------------------------------------------------------------
      1          6           0        4.205207   -1.855463    0.427170
      2          7           0        3.404398   -0.728272   -0.022213
      3          6           0        4.001547    0.520797   -0.199473
      4          6           0        3.294051    1.659154   -0.267722
      5          6           0        1.793745    1.703771   -0.102639
      6          6           0        1.204680    0.299411   -0.023222
      7          6           0       -0.261592    0.148294   -0.026143
      8          6           0       -1.096672    1.234004    0.310378
      9          6           0       -2.487758    1.115681    0.335466
     10          6           0       -3.076839   -0.103414    0.011961
     11         17           0       -4.830124   -0.264278    0.034147
     12          6           0       -2.286570   -1.196959   -0.349396
     13          6           0       -0.901840   -1.061662   -0.376348
     14          6           0        2.022492   -0.779758    0.065147
     15          1           0        5.175259   -1.840023   -0.077785
     16          1           0        4.376973   -1.843392    1.513840
     17          1           0        3.702183   -2.790487    0.165461
     18          1           0        5.081271    0.501891   -0.306890
     19          1           0        3.823242    2.588780   -0.452478
     20          1           0        1.333258    2.253901   -0.939294
     21          1           0        1.532097    2.288865    0.796455
     22          1           0       -0.661461    2.191163    0.575037
     23          1           0       -3.105573    1.965397    0.605796
     24          1           0       -2.752273   -2.136576   -0.627093
     25          1           0       -0.311924   -1.911208   -0.704991
     26          1           0        1.625576   -1.780808    0.195871
 ---------------------------------------------------------------------

 SCF Done:  E(RB3LYP) =  -979.458394438     A.U. after   15 cycles

 Excitation energies and oscillator strengths:

 Excited State   1:      Triplet-A      2.2831 eV  543.06 nm  f=0.0000  <S**2>=2.000
      54 -> 55         0.67555
 This state for optimization and/or second-order correction.
 Total Energy, E(TD-HF/TD-DFT) =  -979.374493511
 Copying the excited state density for this state as the 1-particle RhoCI density.

 Excited State   2:      Singlet-A      3.2930 eV  376.50 nm  f=0.2531  <S**2>=0.000
      54 -> 55         0.69674

 Excited State   3:      Triplet-A      3.3900 eV  365.73 nm  f=0.0000  <S**2>=2.000
      52 -> 56         0.17064
      53 -> 55         0.45739
      54 -> 56         0.12186
      54 -> 59        -0.28665
      54 -> 60         0.31279

 Excited State   4:      Triplet-A      3.4696 eV  357.34 nm  f=0.0000  <S**2>=2.000
      53 -> 56        -0.16219
      54 -> 56         0.66695

 Excited State   5:      Singlet-A      3.8126 eV  325.20 nm  f=0.0502  <S**2>=0.000
      54 -> 56         0.69077

 Excited State   6:      Singlet-A      4.0615 eV  305.27 nm  f=0.0066  <S**2>=0.000
      54 -> 57         0.69813

 The electronic state is 1-A.
 Alpha  occ. eigenvalues -- -101.54923 -14.38182 -10.25076 -10.23753 -10.23006
 Alpha  occ. eigenvalues --  -10.22712 -10.21022 -10.20509 -10.20434 -10.20164
 Alpha  occ. eigenvalues --  -10.19980 -10.19973 -10.19752 -10.18878  -9.46432
 Alpha  occ. eigenvalues --   -7.22830  -7.21869  -7.21845  -0.97556  -0.88953
 Alpha  occ. eigenvalues --   -0.84617  -0.81053  -0.77892  -0.75872  -0.73419
 Alpha  occ. eigenvalues --   -0.71876  -0.65085  -0.63925  -0.61388  -0.58964
 Alpha  occ. eigenvalues --   -0.53848  -0.51373  -0.49581  -0.48857  -0.46920
 Alpha  occ. eigenvalues --   -0.46121  -0.45576  -0.44154  -0.43539  -0.43237
 Alpha  occ. eigenvalues --   -0.42365  -0.41364  -0.39316  -0.37812  -0.37751
 Alpha  occ. eigenvalues --   -0.35706  -0.35069  -0.34097  -0.33599  -0.31116
 Alpha  occ. eigenvalues --   -0.28441  -0.26372  -0.24022  -0.18313
 Alpha virt. eigenvalues --   -0.04224  -0.01994  -0.00707   0.00637   0.01021
 Alpha virt. eigenvalues --    0.01289   0.01806   0.02252   0.02630   0.03168
 Alpha virt. eigenvalues --    0.04259   0.04600   0.05058   0.05839   0.05966

 Mulliken charges:
               1
     1  C   -0.203594
     2  N   -0.020199
     3  C   -0.050848
     4  C   -0.256548
     5  C   -0.640111
     6  C    0.293367
     7  C    0.211813
     8  C   -0.069694
     9  C   -0.308811
    10  C    0.093218
    11  Cl   0.241257
    12  C   -0.427798
    13  C   -0.205253
    14  C   -0.268594
    15  H    0.145426
    16  H    0.156182
    17  H    0.143485
    18  H    0.119017
    19  H    0.121540
    20  H    0.156954
    21  H    0.146692
    22  H    0.123582
    23  H    0.139269
    24  H    0.138731
    25  H    0.114563
    26  H    0.106355
 Sum of Mulliken charges =  -0.00000

 Dipole moment (field-independent basis, Debye):
    X=              4.1166    Y=             -1.0273    Z=              0.3106  Tot=              4.2542
 Quadrupole moment (field-independent basis, Debye-Ang):
   XX=            -89.4723   YY=            -81.3170   ZZ=            -95.4824
   XY=             -5.7370   XZ=              0.9599   YZ=              1.0754

 Normal termination of Gaussian 16 at Tue Oct  7 11:46:38 2025.
