 Gaussian 16, Revision C.02,
 Gaussian 16:  ES64L-G16RevC.02  7-Dec-2021

 ----------------------------------------------------------
 # td=(50-50,nstates=3) b3lyp/6-31+g(d,p) geom=connectivity
 ----------------------------------------------------------

 -------------------
 Title Card Required
 -------------------
 Symbolic Z-matrix:
 Charge =  0 Multiplicity = 1

                         Standard orientation:
 ---------------------------------------------------------------------
 Center     Atomic      Atomic             Coordinates (Angstroms)
 Number     Number       Type             X           Y           Z
 ---------------------------------------------------------------------
      1          6           0        2.221074    1.252340   -0.853520
      2          6           0        2.151231   -0.223792   -0.430700
      3          6           0        3.481899   -0.935349   -0.721413
      4          6           0        1.777215   -0.393802    1.055876
      5          6           0        0.372968    0.115881    1.457131
      6          6           0       -0.731803   -0.653747    0.811827
      7          6           0       -1.791668   -0.135940    0.142513
      8          6           0       -2.802275   -0.989703   -0.420488
      9          7           0       -3.614134   -1.688785   -0.873115
     10          6           0       -1.969343    1.279668   -0.038128
     11          7           0       -2.108870    2.425311   -0.182575
     12          1           0        2.501368    1.338962   -1.908621
     13          1           0        1.266071    1.772056   -0.728402
     14          1           0        2.975562    1.789529   -0.264677
     15          1           0        1.372729   -0.713378   -1.035612
     16          1           0        3.432817   -2.000416   -0.467858
     17          1           0        3.747695   -0.855144   -1.780832
     18          1           0        4.299028   -0.490106   -0.139793
     19          1           0        1.853177   -1.456021    1.325924
     20          1           0        2.515618    0.133031    1.674570
     21          1           0        0.265274   -0.014630    2.544681
     22          1           0        0.265623    1.186066    1.259331
     23          1           0       -0.689710   -1.738967    0.892534
 ---------------------------------------------------------------------

 SCF Done:  E(RB3LYP) =  -459.673922285     A.U. after   15 cycles

 Excitation energies and oscillator strengths:

 Excited State   1:      Triplet-A      2.9645 eV  418.23 nm  f=0.0000  <S**2>=2.000
      40 -> 41         0.69596
      40 <- 41         0.12108
 This state for optimization and/or second-order correction.
 Total Energy, E(TD-HF/TD-DFT) =  -459.564978728
 Copying the excited state density for this state as the 1-particle RhoCI density.

 Excited State   2:      Triplet-A      5.2067 eV  238.12 nm  f=0.0000  <S**2>=2.000
      27 -> 47         0.12027
      35 -> 41         0.55121
      36 -> 42         0.18723
      40 -> 47        -0.28976

 Excited State   3:      Singlet-A      5.3080 eV  233.58 nm  f=0.3720  <S**2>=0.000
      37 -> 41        -0.10548
      40 -> 41         0.68065

 Excited State   4:      Triplet-A      5.5110 eV  224.97 nm  f=0.0000  <S**2>=2.000
      34 -> 41        -0.10920
      34 -> 47         0.11659
      35 -> 42         0.10590
      36 -> 41         0.59452
      39 -> 41         0.23578
      40 -> 42         0.11476

 Excited State   5:      Singlet-A      5.8004 eV  213.75 nm  f=0.0061  <S**2>=0.000
      36 -> 41         0.50552
      38 -> 41         0.18518
      39 -> 41         0.44127

 Excited State   6:      Singlet-A      5.8825 eV  210.77 nm  f=0.0021  <S**2>=0.000
      34 -> 41        -0.21707
      36 -> 41        -0.32154
      37 -> 41        -0.16707
      38 -> 41        -0.31776
      39 -> 41         0.45872

 The electronic state is 1-A.
 Alpha  occ. eigenvalues --  -14.37243 -14.36957 -10.29645 -10.27376 -10.26506
 Alpha  occ. eigenvalues --  -10.26258 -10.23315 -10.21686 -10.21329 -10.19236
 Alpha  occ. eigenvalues --  -10.19054  -0.94556  -0.93135  -0.87738  -0.83391
 Alpha  occ. eigenvalues --   -0.78238  -0.70201  -0.69921  -0.65106  -0.61294
 Alpha  occ. eigenvalues --   -0.57673  -0.53673  -0.48321  -0.47760  -0.45823
 Alpha  occ. eigenvalues --   -0.44326  -0.42676  -0.41087  -0.40279  -0.39925
 Alpha  occ. eigenvalues --   -0.39545  -0.38728  -0.38316  -0.36935  -0.36883
 Alpha  occ. eigenvalues --   -0.35847  -0.34834  -0.34664  -0.34343  -0.29877
 Alpha virt. eigenvalues --   -0.09978  -0.02673  -0.01261   0.00324   0.00420
 Alpha virt. eigenvalues --    0.00581   0.01313   0.02756   0.03183   0.03507
 Alpha virt. eigenvalues --    0.03805   0.04260   0.04519   0.05975   0.06372

 Mulliken charges:
               1
     1  C   -0.569622
     2  C    0.272822
     3  C   -0.571798
     4  C   -0.411403
     5  C   -0.235471
     6  C    0.299684
     7  C    0.700807
     8  C   -0.016065
     9  N   -0.486521
    10  C   -0.294151
    11  N   -0.480099
    12  H    0.149182
    13  H    0.147355
    14  H    0.148034
    15  H    0.128521
    16  H    0.140977
    17  H    0.149591
    18  H    0.148001
    19  H    0.138510
    20  H    0.149389
    21  H    0.174796
    22  H    0.162406
    23  H    0.155054
 Sum of Mulliken charges =  -0.00000

 Dipole moment (field-independent basis, Debye):
    X=              4.9019    Y=             -1.5018    Z=              2.5138  Tot=              5.7099
 Quadrupole moment (field-independent basis, Debye-Ang):
   XX=            -83.2332   YY=            -78.9446   ZZ=            -66.2160
   XY=             -1.2678   XZ=             -4.7183   YZ=             -2.1967

 Normal termination of Gaussian 16 at Wed Aug 27 20:40:15 2025.
