 Gaussian 16, Revision C.02,
 Gaussian 16:  ES64L-G16RevC.02  7-Dec-2021

 ----------------------------------------------------------
 # td=(50-50,nstates=3) b3lyp/6-31+g(d,p) geom=connectivity
 ----------------------------------------------------------

 -------------------
 Title Card Required
 -------------------
 Symbolic Z-matrix:
 Charge =  0 Multiplicity = 1

                         Standard orientation:
 ---------------------------------------------------------------------
 Center     Atomic      Atomic             Coordinates (Angstroms)
 Number     Number       Type             X           Y           Z
 ---------------------------------------------------------------------
      1          6           0       -4.271269    1.293255   -0.000556
      2          7           0       -2.997022    0.589649   -0.000308
      3          6           0       -2.511077    0.043469   -1.185708
      4          6           0       -1.521899   -0.867600   -1.234693
      5          6           0       -0.808324   -1.387161    0.000616
      6          6           0        0.681494   -1.014614    0.000333
      7          6           0        1.672660   -2.004042    0.000072
      8          6           0        3.031271   -1.669131   -0.000260
      9          6           0        3.424047   -0.333689   -0.000340
     10          6           0        2.437765    0.670131   -0.000063
     11          6           0        2.825416    2.053157   -0.000087
     12          7           0        3.140610    3.173820   -0.000280
     13          6           0        1.076922    0.327479    0.000252
     14          6           0       -1.521770   -0.866316    1.235478
     15          6           0       -2.510954    0.044668    1.185712
     16          1           0       -4.335167    1.932737   -0.884897
     17          1           0       -5.131546    0.607097   -0.000225
     18          1           0       -4.335071    1.933514    0.883221
     19          1           0       -2.985327    0.413756   -2.089161
     20          1           0       -1.192271   -1.223568   -2.205769
     21          1           0       -0.836695   -2.488960    0.001228
     22          1           0        1.378237   -3.050930    0.000140
     23          1           0        3.783334   -2.452415   -0.000450
     24          1           0        4.473679   -0.059855   -0.000583
     25          1           0        0.327233    1.112117    0.000462
     26          1           0       -1.192014   -1.221345    2.206857
     27          1           0       -2.985195    0.415920    2.088764
 ---------------------------------------------------------------------

 SCF Done:  E(RB3LYP) =  -612.103906077     A.U. after   17 cycles

 Excitation energies and oscillator strengths:

 Excited State   1:      Triplet-A      2.7905 eV  444.31 nm  f=0.0000  <S**2>=2.000
      52 -> 53         0.53958
      52 -> 54        -0.22840
      52 -> 56        -0.37525
 This state for optimization and/or second-order correction.
 Total Energy, E(TD-HF/TD-DFT) =  -612.001357446
 Copying the excited state density for this state as the 1-particle RhoCI density.

 Excited State   2:      Singlet-A      3.1115 eV  398.47 nm  f=0.0009  <S**2>=0.000
      52 -> 53         0.70571

 Excited State   3:      Triplet-A      3.3828 eV  366.51 nm  f=0.0000  <S**2>=2.000
      52 -> 53         0.44069
      52 -> 54         0.41894
      52 -> 56         0.34584

 Excited State   4:      Triplet-A      3.4082 eV  363.79 nm  f=0.0000  <S**2>=2.000
      49 -> 54         0.16572
      50 -> 53         0.55281
      50 -> 54         0.11955
      51 -> 53         0.23614
      51 -> 54        -0.27785

 Excited State   5:      Singlet-A      3.7122 eV  333.99 nm  f=0.0010  <S**2>=0.000
      52 -> 54         0.70562

 Excited State   6:      Singlet-A      4.3577 eV  284.52 nm  f=0.0338  <S**2>=0.000
      52 -> 55         0.69183

 The electronic state is 1-A.
 Alpha  occ. eigenvalues --  -14.38198 -14.34149 -10.24267 -10.23772 -10.23334
 Alpha  occ. eigenvalues --  -10.23206 -10.23205 -10.21981 -10.21762 -10.21658
 Alpha  occ. eigenvalues --  -10.21594 -10.21509 -10.21375 -10.19101 -10.19100
 Alpha  occ. eigenvalues --   -0.97666  -0.91111  -0.88184  -0.82781  -0.78393
 Alpha  occ. eigenvalues --   -0.77171  -0.76964  -0.72155  -0.65733  -0.65487
 Alpha  occ. eigenvalues --   -0.63464  -0.61317  -0.55417  -0.53309  -0.50696
 Alpha  occ. eigenvalues --   -0.49912  -0.49262  -0.48036  -0.46780  -0.45022
 Alpha  occ. eigenvalues --   -0.44117  -0.43720  -0.42933  -0.41685  -0.40367
 Alpha  occ. eigenvalues --   -0.39474  -0.38321  -0.36232  -0.35949  -0.35931
 Alpha  occ. eigenvalues --   -0.35249  -0.34100  -0.33349  -0.28501  -0.26778
 Alpha  occ. eigenvalues --   -0.26050  -0.19738
 Alpha virt. eigenvalues --   -0.05794  -0.03356  -0.00889  -0.00625   0.00114
 Alpha virt. eigenvalues --    0.01276   0.01544   0.01642   0.02474   0.03209
 Alpha virt. eigenvalues --    0.03336   0.03846   0.04022   0.04387   0.05473

 Mulliken charges:
               1
     1  C   -0.151804
     2  N    0.021976
     3  C    0.000853
     4  C   -0.367481
     5  C    0.334177
     6  C   -0.246019
     7  C    0.261258
     8  C   -0.160226
     9  C   -0.095533
    10  C   -0.126672
    11  C   -0.286306
    12  N   -0.534200
    13  C    0.105835
    14  C   -0.367626
    15  C    0.001034
    16  H    0.147305
    17  H    0.155260
    18  H    0.147301
    19  H    0.121524
    20  H    0.121631
    21  H    0.121234
    22  H    0.121847
    23  H    0.133875
    24  H    0.146428
    25  H    0.151170
    26  H    0.121630
    27  H    0.121529
 Sum of Mulliken charges =  -0.00000

 Dipole moment (field-independent basis, Debye):
    X=             -3.7025    Y=             -3.4556    Z=              0.0002  Tot=              5.0646
 Quadrupole moment (field-independent basis, Debye-Ang):
   XX=            -81.0578   YY=            -99.8746   ZZ=            -87.8900
   XY=            -21.6468   XZ=              0.0018   YZ=              0.0034

 Normal termination of Gaussian 16 at Wed Aug 27 20:38:35 2025.
