 Gaussian 16, Revision C.02,
 Gaussian 16:  ES64L-G16RevC.02  7-Dec-2021

 ----------------------------------------------------------
 # td=(50-50,nstates=3) b3lyp/6-31+g(d,p) geom=connectivity
 ----------------------------------------------------------

 -------------------
 Title Card Required
 -------------------
 Symbolic Z-matrix:
 Charge =  0 Multiplicity = 1

                         Standard orientation:
 ---------------------------------------------------------------------
 Center     Atomic      Atomic             Coordinates (Angstroms)
 Number     Number       Type             X           Y           Z
 ---------------------------------------------------------------------
      1          6           0        4.233556   -0.889632   -0.700140
      2          7           0        3.058781   -0.774491    0.157231
      3          6           0        3.304045   -0.487241    1.563082
      4          7           0        2.008851   -0.196664   -0.476485
      5          6           0        1.058484    0.374698    0.171766
      6          6           0       -0.134956    0.894194   -0.615623
      7          6           0       -0.281059    2.343795   -0.396263
      8          7           0       -0.374687    3.486024   -0.206581
      9          6           0       -1.416698    0.116014   -0.287548
     10          6           0       -1.539186   -1.191925   -0.779151
     11          6           0       -2.669239   -1.955298   -0.485347
     12          6           0       -3.690341   -1.421773    0.308174
     13          6           0       -3.572139   -0.121368    0.801167
     14          6           0       -2.440524    0.645957    0.504746
     15          1           0        4.893110   -1.669149   -0.308811
     16          1           0        3.901657   -1.169448   -1.700780
     17          1           0        4.797766    0.054388   -0.766811
     18          1           0        4.209007   -1.012942    1.872333
     19          1           0        3.435678    0.592163    1.749782
     20          1           0        2.474875   -0.849274    2.179313
     21          1           0        1.015846    0.479911    1.256677
     22          1           0        0.104907    0.752220   -1.675974
     23          1           0       -0.743787   -1.612051   -1.389093
     24          1           0       -2.753713   -2.964780   -0.877341
     25          1           0       -4.571156   -2.014877    0.535980
     26          1           0       -4.361402    0.303683    1.414445
     27          1           0       -2.365061    1.661548    0.881946
 ---------------------------------------------------------------------

 SCF Done:  E(RB3LYP) =  -591.228582438     A.U. after   15 cycles

 Excitation energies and oscillator strengths:

 Excited State   1:      Triplet-A      3.3268 eV  372.69 nm  f=0.0000  <S**2>=2.000
      50 -> 51         0.54165
      50 -> 52        -0.10660
      50 -> 53        -0.35093
      50 -> 54        -0.16774
 This state for optimization and/or second-order correction.
 Total Energy, E(TD-HF/TD-DFT) =  -591.106325478
 Copying the excited state density for this state as the 1-particle RhoCI density.

 Excited State   2:      Triplet-A      3.7035 eV  334.78 nm  f=0.0000  <S**2>=2.000
      48 -> 51        -0.15250
      48 -> 52         0.37299
      48 -> 53        -0.18275
      49 -> 51         0.37475
      49 -> 52         0.26940
      49 -> 53         0.14885
      50 -> 52        -0.16407
      50 -> 53        -0.12366

 Excited State   3:      Triplet-A      4.5355 eV  273.36 nm  f=0.0000  <S**2>=2.000
      48 -> 51        -0.35335
      48 -> 53        -0.17726
      49 -> 51         0.11683
      49 -> 52        -0.37060
      49 -> 53         0.12446
      50 -> 52         0.39758

 Excited State   4:      Singlet-A      4.8124 eV  257.64 nm  f=0.1063  <S**2>=0.000
      50 -> 51         0.55871
      50 -> 52         0.41356

 Excited State   5:      Singlet-A      4.8600 eV  255.11 nm  f=0.1193  <S**2>=0.000
      48 -> 51         0.11423
      50 -> 51        -0.39037
      50 -> 52         0.55445

 Excited State   6:      Singlet-A      5.2481 eV  236.25 nm  f=0.0749  <S**2>=0.000
      48 -> 51        -0.18611
      48 -> 52        -0.12272
      49 -> 52         0.18892
      50 -> 53         0.52021
      50 -> 54        -0.34450

 The electronic state is 1-A.
 Alpha  occ. eigenvalues --  -14.39601 -14.38457 -14.34371 -10.25236 -10.23705
 Alpha  occ. eigenvalues --  -10.23602 -10.23249 -10.22556 -10.22198 -10.20641
 Alpha  occ. eigenvalues --  -10.20575 -10.20563 -10.20483 -10.20465  -1.02744
 Alpha  occ. eigenvalues --   -0.91459  -0.87952  -0.86228  -0.80537  -0.75913
 Alpha  occ. eigenvalues --   -0.74357  -0.73584  -0.67672  -0.62274  -0.60800
 Alpha  occ. eigenvalues --   -0.57775  -0.54636  -0.53598  -0.51292  -0.49164
 Alpha  occ. eigenvalues --   -0.48544  -0.47287  -0.44945  -0.44084  -0.43730
 Alpha  occ. eigenvalues --   -0.43183  -0.41829  -0.41666  -0.39684  -0.37776
 Alpha  occ. eigenvalues --   -0.37155  -0.36976  -0.36022  -0.35390  -0.33486
 Alpha  occ. eigenvalues --   -0.33245  -0.29158  -0.26603  -0.26389  -0.22866
 Alpha virt. eigenvalues --   -0.03279  -0.02767  -0.01172  -0.00194   0.00442
 Alpha virt. eigenvalues --    0.01374   0.01986   0.02179   0.02626   0.03220
 Alpha virt. eigenvalues --    0.03623   0.03900   0.04371   0.04714   0.04832

 Mulliken charges:
               1
     1  C   -0.325868
     2  N    0.121479
     3  C   -0.337137
     4  N   -0.121715
     5  C   -0.599762
     6  C    0.332320
     7  C    0.097587
     8  N   -0.486437
     9  C    0.429860
    10  C    0.200310
    11  C   -0.255156
    12  C   -0.085540
    13  C   -0.394591
    14  C   -0.464262
    15  H    0.144778
    16  H    0.166539
    17  H    0.142163
    18  H    0.151330
    19  H    0.156575
    20  H    0.151173
    21  H    0.124189
    22  H    0.198266
    23  H    0.128742
    24  H    0.128374
    25  H    0.126531
    26  H    0.130485
    27  H    0.139766
 Sum of Mulliken charges =  -0.00000

 Dipole moment (field-independent basis, Debye):
    X=              1.7613    Y=             -4.1637    Z=              1.1886  Tot=              4.6746
 Quadrupole moment (field-independent basis, Debye-Ang):
   XX=            -68.3138   YY=            -99.9145   ZZ=            -81.7763
   XY=              1.1324   XZ=              0.6570   YZ=              2.1086

 Normal termination of Gaussian 16 at Wed Aug 27 20:35:38 2025.
