 Gaussian 16, Revision C.02,
 Gaussian 16:  ES64L-G16RevC.02  7-Dec-2021

 ----------------------------------------------------------
 # td=(50-50,nstates=3) b3lyp/6-31+g(d,p) geom=connectivity
 ----------------------------------------------------------

 -------------------
 Title Card Required
 -------------------
 Symbolic Z-matrix:
 Charge =  0 Multiplicity = 1

                         Standard orientation:
 ---------------------------------------------------------------------
 Center     Atomic      Atomic             Coordinates (Angstroms)
 Number     Number       Type             X           Y           Z
 ---------------------------------------------------------------------
      1          6           0        0.561150   -3.059188    0.002743
      2          6           0        2.083419   -2.864268    0.002568
      3          6           0        2.676430   -3.464032    1.286069
      4          6           0        2.676766   -3.469838   -1.278068
      5          8           0        2.198394   -1.406905   -0.000755
      6          6           0        3.331358   -0.663646    0.000267
      7          6           0        4.638149   -1.150261    0.000317
      8          6           0        5.753055   -0.273004    0.001341
      9          7           0        7.037031   -0.771547    0.003105
     10          6           0        8.175031    0.138376   -0.005329
     11          6           0        7.273030   -2.206646   -0.006481
     12          6           0        5.513953    1.125946    0.000716
     13          6           0        4.217630    1.604714    0.000498
     14          6           0        3.098522    0.744448    0.000523
     15          6           0        1.797934    1.283833    0.000379
     16          6           0        0.704865    1.831125    0.000328
     17          6           0       -0.542304    2.482587    0.000241
     18          6           0       -1.714484    1.696159    0.000208
     19          6           0       -2.741800    1.036118    0.000146
     20          6           0       -3.957815    0.314739    0.000065
     21          6           0       -5.196891    0.994525   -0.000005
     22          6           0       -6.396702    0.302901   -0.000126
     23          6           0       -6.425454   -1.117359   -0.000023
     24          7           0       -7.616290   -1.807730    0.000360
     25          6           0       -7.620287   -3.262985   -0.002585
     26          6           0       -8.881597   -1.087163   -0.002632
     27          6           0       -5.178161   -1.797320   -0.000213
     28          6           0       -3.982544   -1.096818   -0.000089
     29          6           0       -0.624276    3.882461    0.000227
     30          6           0       -1.882886    4.547161    0.000179
     31          7           0       -2.914496    5.091586    0.000243
     32          6           0        0.550455    4.686270    0.000319
     33          7           0        1.514345    5.343129    0.000510
     34          1           0        0.119490   -2.597208   -0.884665
     35          1           0        0.315793   -4.125777    0.004886
     36          1           0        0.119207   -2.593561    0.888096
     37          1           0        3.763846   -3.385645    1.336175
     38          1           0        2.416239   -4.526073    1.343730
     39          1           0        2.257491   -2.961522    2.162956
     40          1           0        2.416485   -4.532104   -1.331086
     41          1           0        2.258148   -2.971187   -2.157309
     42          1           0        3.764207   -3.391841   -1.328230
     43          1           0        4.807495   -2.212927   -0.000543
     44          1           0        8.181167    0.773793   -0.900679
     45          1           0        8.179396    0.789628    0.878203
     46          1           0        9.096858   -0.443418    0.001372
     47          1           0        6.842593   -2.695947    0.877856
     48          1           0        6.852742   -2.684019   -0.902498
     49          1           0        8.347001   -2.393081   -0.001060
     50          1           0        6.333857    1.831347    0.000207
     51          1           0        4.039278    2.675290    0.000126
     52          1           0       -5.202595    2.079908   -0.000043
     53          1           0       -7.319010    0.869761   -0.000312
     54          1           0       -7.120323   -3.672803    0.885379
     55          1           0       -8.651052   -3.617694   -0.001086
     56          1           0       -7.123707   -3.669697   -0.893979
     57          1           0       -8.986984   -0.454215   -0.893824
     58          1           0       -9.701658   -1.805362   -0.001208
     59          1           0       -8.988113   -0.449856    0.885204
     60          1           0       -5.144426   -2.879498   -0.000474
     61          1           0       -3.043995   -1.642138   -0.000201
 ---------------------------------------------------------------------

 SCF Done:  E(RB3LYP) =  -1377.99024307     A.U. after   16 cycles

 Excitation energies and oscillator strengths:

 Excited State   1:      Triplet-A      1.5781 eV  785.65 nm  f=0.0000  <S**2>=2.000
     113 ->117        -0.20949
     115 ->117         0.32882
     116 ->117         0.58500
 This state for optimization and/or second-order correction.
 Total Energy, E(TD-HF/TD-DFT) =  -1377.93224883
 Copying the excited state density for this state as the 1-particle RhoCI density.

 Excited State   2:      Triplet-A      1.9951 eV  621.43 nm  f=0.0000  <S**2>=2.000
     115 ->117         0.59182
     116 ->117        -0.34825

 Excited State   3:      Singlet-A      2.5243 eV  491.17 nm  f=0.9718  <S**2>=0.000
     115 ->117        -0.48078
     116 ->117         0.51587

 Excited State   4:      Singlet-A      2.7691 eV  447.74 nm  f=0.4524  <S**2>=0.000
     115 ->117         0.51605
     116 ->117         0.48117

 Excited State   5:      Triplet-A      2.9039 eV  426.96 nm  f=0.0000  <S**2>=2.000
     108 ->117         0.10549
     113 ->117         0.61324
     114 ->117        -0.15175
     115 ->117         0.12545
     115 ->118         0.14728
     116 ->117         0.14984

 Excited State   6:      Singlet-A      3.4182 eV  362.72 nm  f=0.0137  <S**2>=0.000
     113 ->117         0.13661
     114 ->117         0.68634

 The electronic state is 1-A.
 Alpha  occ. eigenvalues --  -19.18884 -14.38390 -14.38346 -14.33004 -14.32994
 Alpha  occ. eigenvalues --  -10.27457 -10.27315 -10.26825 -10.25463 -10.25342
 Alpha  occ. eigenvalues --  -10.24958 -10.24186 -10.24000 -10.23866 -10.23835
 Alpha  occ. eigenvalues --  -10.22561 -10.22556 -10.21745 -10.21214 -10.21126
 Alpha  occ. eigenvalues --  -10.21122 -10.21003 -10.20840 -10.20719 -10.20302
 Alpha  occ. eigenvalues --  -10.20192 -10.20126 -10.19812 -10.19780 -10.19603
 Alpha  occ. eigenvalues --  -10.19601 -10.19404 -10.18968  -1.07301  -0.97363
 Alpha  occ. eigenvalues --   -0.97328  -0.90676  -0.89104  -0.86798  -0.86709
 Alpha  occ. eigenvalues --   -0.85293  -0.82408  -0.79295  -0.79025  -0.76893
 Alpha  occ. eigenvalues --   -0.76464  -0.75609  -0.74413  -0.74272  -0.73946
 Alpha  occ. eigenvalues --   -0.71319  -0.70932  -0.70424  -0.68876  -0.66978
 Alpha  occ. eigenvalues --   -0.64197  -0.62090  -0.61435  -0.60448  -0.59268
 Alpha  occ. eigenvalues --   -0.57848  -0.55492  -0.54506  -0.53187  -0.52849
 Alpha  occ. eigenvalues --   -0.51627  -0.51444  -0.50412  -0.49994  -0.49472
 Alpha  occ. eigenvalues --   -0.48670  -0.48572  -0.47533  -0.46818  -0.46448
 Alpha  occ. eigenvalues --   -0.45849  -0.44376  -0.44120  -0.43877  -0.43146
 Alpha  occ. eigenvalues --   -0.42954  -0.42944  -0.42762  -0.42246  -0.42181
 Alpha  occ. eigenvalues --   -0.41078  -0.41025  -0.40508  -0.40230  -0.39869
 Alpha  occ. eigenvalues --   -0.39814  -0.39541  -0.39012  -0.38460  -0.37760
 Alpha  occ. eigenvalues --   -0.37016  -0.36025  -0.35609  -0.35432  -0.35184
 Alpha  occ. eigenvalues --   -0.35072  -0.34077  -0.33300  -0.33170  -0.32811
 Alpha  occ. eigenvalues --   -0.32779  -0.32178  -0.30773  -0.29028  -0.27394
 Alpha  occ. eigenvalues --   -0.26995  -0.26882  -0.24744  -0.24150  -0.20311
 Alpha  occ. eigenvalues --   -0.19948
 Alpha virt. eigenvalues --   -0.09800  -0.03000  -0.02171  -0.01711  -0.01324
 Alpha virt. eigenvalues --   -0.01133  -0.00410   0.00148   0.00434   0.00813
 Alpha virt. eigenvalues --    0.00951   0.01392   0.01686   0.01798   0.01916

 Mulliken charges:
               1
     1  C   -0.529491
     2  C    0.114274
     3  C   -0.378433
     4  C   -0.379443
     5  O   -0.257018
     6  C    0.132644
     7  C    0.050797
     8  C    0.372873
     9  N   -0.101460
    10  C   -0.292980
    11  C   -0.301784
    12  C   -0.481463
    13  C   -0.676302
    14  C    0.188709
    15  C    0.190657
    16  C   -0.066393
    17  C    0.506554
    18  C    0.043921
    19  C   -0.161294
    20  C   -0.269634
    21  C   -0.469292
    22  C    0.028954
    23  C    0.442952
    24  N   -0.102160
    25  C   -0.290392
    26  C   -0.292193
    27  C    0.060927
    28  C   -0.172187
    29  C    0.378525
    30  C   -0.116172
    31  N   -0.563627
    32  C   -0.114830
    33  N   -0.563084
    34  H    0.163738
    35  H    0.144838
    36  H    0.163813
    37  H    0.135711
    38  H    0.152066
    39  H    0.164583
    40  H    0.152051
    41  H    0.164581
    42  H    0.135716
    43  H    0.080716
    44  H    0.158310
    45  H    0.158185
    46  H    0.134972
    47  H    0.150593
    48  H    0.150886
    49  H    0.137716
    50  H    0.119531
    51  H    0.169485
    52  H    0.161446
    53  H    0.119314
    54  H    0.154716
    55  H    0.136502
    56  H    0.154761
    57  H    0.157034
    58  H    0.135850
    59  H    0.157003
    60  H    0.114650
    61  H    0.139081
 Sum of Mulliken charges =  -0.00000

 Dipole moment (field-independent basis, Debye):
    X=              1.2971    Y=            -14.2787    Z=             -0.0112  Tot=             14.3375
 Quadrupole moment (field-independent basis, Debye-Ang):
   XX=            -89.6069   YY=           -228.6679   ZZ=           -202.7854
   XY=             11.0678   XZ=             -0.0379   YZ=              0.0050

 Normal termination of Gaussian 16 at Wed Aug 27 20:30:12 2025.
