 Gaussian 16, Revision C.02,
 Gaussian 16:  ES64L-G16RevC.02  7-Dec-2021

 ----------------------------------------------------------
 # td=(50-50,nstates=3) b3lyp/6-31+g(d,p) geom=connectivity
 ----------------------------------------------------------

 -------------------
 Title Card Required
 -------------------
 Symbolic Z-matrix:
 Charge =  0 Multiplicity = 1

                         Standard orientation:
 ---------------------------------------------------------------------
 Center     Atomic      Atomic             Coordinates (Angstroms)
 Number     Number       Type             X           Y           Z
 ---------------------------------------------------------------------
      1          6           0        3.861344   -2.010839   -1.500597
      2          6           0        3.777192   -0.960366   -0.390396
      3          6           0        4.554257   -1.410243    0.852129
      4          8           0        4.378837    0.231402   -0.944723
      5          6           0        2.277073   -0.678939   -0.065332
      6          6           0        2.072233    0.559266    0.791738
      7          8           0        2.233593    0.529434    2.003082
      8          6           0        1.662130    1.865876    0.111542
      9          6           0        0.209779    2.216882    0.424548
     10          8           0       -0.620889    1.198996   -0.150059
     11          6           0       -2.007316    1.332682    0.142442
     12          6           0       -2.554110    2.565256   -0.490590
     13          7           0       -2.977362    3.524966   -0.990104
     14          6           0       -2.730314    0.114837   -0.365931
     15          7           0       -3.366497   -0.599953    0.495566
     16          7           0       -4.091545   -1.671031    0.130184
     17          6           0       -4.363175   -2.593323    1.226283
     18          6           0       -3.964873   -2.230446   -1.206897
     19          1           0        3.399278   -1.630941   -2.416784
     20          1           0        3.348425   -2.932128   -1.205859
     21          1           0        4.907913   -2.245616   -1.716857
     22          1           0        4.482428   -0.674139    1.659406
     23          1           0        4.157598   -2.354322    1.238969
     24          1           0        5.607785   -1.559517    0.593584
     25          1           0        4.738942    0.767451   -0.225469
     26          1           0        1.730987   -0.565819   -1.006027
     27          1           0        1.865835   -1.535754    0.478446
     28          1           0        2.292810    2.665314    0.516713
     29          1           0        1.812216    1.816434   -0.969810
     30          1           0       -0.043539    3.197277   -0.000577
     31          1           0        0.056378    2.251590    1.512491
     32          1           0       -2.175853    1.406495    1.226277
     33          1           0       -2.683685   -0.078981   -1.437318
     34          1           0       -4.512214   -2.008762    2.134720
     35          1           0       -5.272774   -3.160236    1.009201
     36          1           0       -3.534409   -3.299321    1.391727
     37          1           0       -4.275545   -1.498273   -1.959508
     38          1           0       -2.930704   -2.543075   -1.427365
     39          1           0       -4.621711   -3.098075   -1.285502
 ---------------------------------------------------------------------

 SCF Done:  E(RB3LYP) =  -859.828322513     A.U. after   15 cycles

 Excitation energies and oscillator strengths:

 Excited State   1:      Triplet-A      3.2675 eV  379.45 nm  f=0.0000  <S**2>=2.000
      69 -> 70        -0.15000
      69 -> 71         0.65134
 This state for optimization and/or second-order correction.
 Total Energy, E(TD-HF/TD-DFT) =  -859.708244868
 Copying the excited state density for this state as the 1-particle RhoCI density.

 Excited State   2:      Triplet-A      3.5388 eV  350.36 nm  f=0.0000  <S**2>=2.000
      68 -> 70         0.67649
      68 -> 71         0.14530

 Excited State   3:      Singlet-A      4.1090 eV  301.74 nm  f=0.0004  <S**2>=0.000
      68 -> 70         0.68262
      68 -> 71         0.13701

 Excited State   4:      Singlet-A      4.7517 eV  260.92 nm  f=0.0112  <S**2>=0.000
      69 -> 70         0.70479

 Excited State   5:      Triplet-A      4.7531 eV  260.85 nm  f=0.0000  <S**2>=2.000
      69 -> 70         0.68893
      69 -> 71         0.14298

 Excited State   6:      Singlet-A      5.1337 eV  241.51 nm  f=0.2960  <S**2>=0.000
      69 -> 71         0.64757
      69 -> 72        -0.20296
      69 -> 73        -0.14538

 The electronic state is 1-A.
 Alpha  occ. eigenvalues --  -19.18746 -19.16476 -19.15724 -14.40441 -14.39291
 Alpha  occ. eigenvalues --  -14.35151 -10.29760 -10.28939 -10.26599 -10.25761
 Alpha  occ. eigenvalues --  -10.23903 -10.23843 -10.23688 -10.23103 -10.20625
 Alpha  occ. eigenvalues --  -10.19813 -10.18716 -10.18598  -1.06860  -1.05384
 Alpha  occ. eigenvalues --   -1.03661  -1.03366  -0.91579  -0.87229  -0.81306
 Alpha  occ. eigenvalues --   -0.80277  -0.76079  -0.74758  -0.72525  -0.70383
 Alpha  occ. eigenvalues --   -0.68058  -0.65254  -0.59238  -0.58413  -0.56049
 Alpha  occ. eigenvalues --   -0.55141  -0.53823  -0.51970  -0.50548  -0.50137
 Alpha  occ. eigenvalues --   -0.49214  -0.48685  -0.47588  -0.45908  -0.45377
 Alpha  occ. eigenvalues --   -0.44591  -0.43294  -0.42646  -0.42479  -0.41907
 Alpha  occ. eigenvalues --   -0.40435  -0.40314  -0.39682  -0.39405  -0.38349
 Alpha  occ. eigenvalues --   -0.37930  -0.37412  -0.37324  -0.36621  -0.36085
 Alpha  occ. eigenvalues --   -0.35418  -0.34608  -0.33602  -0.33379  -0.30078
 Alpha  occ. eigenvalues --   -0.29306  -0.28846  -0.25817  -0.23545
 Alpha virt. eigenvalues --   -0.04314  -0.03330  -0.00951  -0.00228   0.00619
 Alpha virt. eigenvalues --    0.01190   0.01520   0.01834   0.02618   0.02954
 Alpha virt. eigenvalues --    0.03061   0.03350   0.03539   0.03835   0.04444

 Mulliken charges:
               1
     1  C   -0.355983
     2  C    0.164887
     3  C   -0.536946
     4  O   -0.454762
     5  C   -0.088011
     6  C   -0.145089
     7  O   -0.348702
     8  C   -0.281806
     9  C   -0.038664
    10  O   -0.201462
    11  C   -0.402081
    12  C    0.286086
    13  N   -0.518705
    14  C    0.065906
    15  N   -0.057624
    16  N    0.085133
    17  C   -0.325162
    18  C   -0.333480
    19  H    0.156796
    20  H    0.146925
    21  H    0.156594
    22  H    0.169254
    23  H    0.153733
    24  H    0.157580
    25  H    0.344743
    26  H    0.154388
    27  H    0.164547
    28  H    0.169022
    29  H    0.178333
    30  H    0.150539
    31  H    0.148587
    32  H    0.176060
    33  H    0.131080
    34  H    0.170489
    35  H    0.147990
    36  H    0.143083
    37  H    0.156058
    38  H    0.156827
    39  H    0.153841
 Sum of Mulliken charges =  -0.00000

 Dipole moment (field-independent basis, Debye):
    X=             -0.0320    Y=             -5.0056    Z=             -0.1750  Tot=              5.0087
 Quadrupole moment (field-independent basis, Debye-Ang):
   XX=           -108.1414   YY=           -111.5592   ZZ=           -118.5722
   XY=             20.6621   XZ=             -0.4283   YZ=              7.3894

 Normal termination of Gaussian 16 at Wed Aug 27 20:19:07 2025.
