 Gaussian 16, Revision C.02,
 Gaussian 16:  ES64L-G16RevC.02  7-Dec-2021

 ----------------------------------------------------------
 # td=(50-50,nstates=3) b3lyp/6-31+g(d,p) geom=connectivity
 ----------------------------------------------------------

 -------------------
 Title Card Required
 -------------------
 Symbolic Z-matrix:
 Charge =  0 Multiplicity = 1

                         Standard orientation:
 ---------------------------------------------------------------------
 Center     Atomic      Atomic             Coordinates (Angstroms)
 Number     Number       Type             X           Y           Z
 ---------------------------------------------------------------------
      1          6           0        2.116613   -0.053011    1.703699
      2          6           0        2.185182   -0.711343    0.365702
      3          7           0        1.176992   -0.924666   -0.440197
      4          8           0        1.260509   -1.534702   -1.576886
      5          6           0       -0.180140   -0.498280   -0.126701
      6          6           0       -1.135623   -1.484913    0.103739
      7          6           0       -2.463328   -1.122316    0.325348
      8          6           0       -2.841594    0.225039    0.293159
      9          6           0       -1.891226    1.210555    0.044126
     10          6           0       -0.544200    0.858478   -0.168581
     11          6           0        0.421173    1.888080   -0.421646
     12          7           0        1.182148    2.748980   -0.604810
     13          1           0        2.686435   -0.643312    2.430376
     14          1           0        2.570836    0.945753    1.671492
     15          1           0        1.094969    0.050356    2.074892
     16          1           0        3.131514   -1.065839   -0.029534
     17          1           0       -0.827793   -2.524531    0.091385
     18          1           0       -3.205047   -1.891902    0.514522
     19          1           0       -3.876933    0.505927    0.456836
     20          1           0       -2.173175    2.257235    0.007091
 ---------------------------------------------------------------------

 SCF Done:  E(RB3LYP) =  -532.437043224     A.U. after   17 cycles

 Excitation energies and oscillator strengths:

 Excited State   1:      Triplet-A      2.1168 eV  585.73 nm  f=0.0000  <S**2>=2.000
      42 -> 43        -0.23730
      42 -> 44        -0.45255
      42 -> 45         0.51045
      42 <- 44        -0.10837
      42 <- 45         0.14956
 This state for optimization and/or second-order correction.
 Total Energy, E(TD-HF/TD-DFT) =  -532.359253970
 Copying the excited state density for this state as the 1-particle RhoCI density.

 Excited State   2:      Triplet-A      3.2869 eV  377.21 nm  f=0.0000  <S**2>=2.000
      39 -> 44         0.16636
      39 -> 45         0.11583
      40 -> 43         0.39219
      40 -> 44        -0.10424
      41 -> 43        -0.29025
      41 -> 44        -0.25520
      42 -> 43         0.34374
      42 -> 44        -0.11520

 Excited State   3:      Triplet-A      3.3365 eV  371.60 nm  f=0.0000  <S**2>=2.000
      40 -> 43        -0.20029
      41 -> 43         0.24713
      41 -> 44         0.12279
      42 -> 43         0.56413
      42 -> 45         0.18632

 Excited State   4:      Singlet-A      3.3535 eV  369.72 nm  f=0.0096  <S**2>=0.000
      42 -> 43         0.70140

 Excited State   5:      Singlet-A      3.8952 eV  318.30 nm  f=0.0280  <S**2>=0.000
      41 -> 43         0.52958
      41 -> 44         0.20060
      41 -> 45        -0.13120
      42 -> 44         0.38847

 Excited State   6:      Singlet-A      4.0447 eV  306.53 nm  f=0.0145  <S**2>=0.000
      41 -> 43        -0.29633
      41 -> 44        -0.18486
      41 -> 45         0.15001
      42 -> 44         0.52792
      42 -> 45         0.26022

 The electronic state is 1-A.
 Alpha  occ. eigenvalues --  -19.13472 -14.49108 -14.36080 -10.27892 -10.26865
 Alpha  occ. eigenvalues --  -10.25313 -10.25241 -10.24285 -10.23773 -10.23633
 Alpha  occ. eigenvalues --  -10.23507 -10.21720  -1.11190  -0.93304  -0.90841
 Alpha  occ. eigenvalues --   -0.87591  -0.80940  -0.80298  -0.74543  -0.69320
 Alpha  occ. eigenvalues --   -0.66912  -0.61888  -0.57133  -0.52980  -0.52224
 Alpha  occ. eigenvalues --   -0.50386  -0.49446  -0.47367  -0.45801  -0.43306
 Alpha  occ. eigenvalues --   -0.42806  -0.41825  -0.41615  -0.39909  -0.39618
 Alpha  occ. eigenvalues --   -0.37943  -0.36944  -0.35359  -0.30487  -0.29029
 Alpha  occ. eigenvalues --   -0.25413  -0.23131
 Alpha virt. eigenvalues --   -0.07907  -0.05914  -0.03600  -0.01123   0.00302
 Alpha virt. eigenvalues --    0.00704   0.01161   0.02359   0.02927   0.03551
 Alpha virt. eigenvalues --    0.04457   0.04646   0.05085   0.05843   0.06040

 Mulliken charges:
               1
     1  C   -0.390271
     2  C   -0.024236
     3  N   -0.079599
     4  O   -0.191735
     5  C   -1.072264
     6  C    0.524339
     7  C   -0.044406
     8  C    0.138104
     9  C   -0.323577
    10  C    0.760687
    11  C   -0.080178
    12  N   -0.508975
    13  H    0.165076
    14  H    0.193879
    15  H    0.162183
    16  H    0.166148
    17  H    0.159612
    18  H    0.143574
    19  H    0.142347
    20  H    0.159293
 Sum of Mulliken charges =  -0.00000

 Dipole moment (field-independent basis, Debye):
    X=             -3.3489    Y=             -1.2209    Z=              4.6775  Tot=              5.8809
 Quadrupole moment (field-independent basis, Debye-Ang):
   XX=            -59.1699   YY=            -78.0385   ZZ=            -76.5956
   XY=             -3.2693   XZ=              6.2467   YZ=             -3.4020

 Normal termination of Gaussian 16 at Wed Aug 27 20:13:58 2025.
