 Gaussian 16, Revision C.02,
 Gaussian 16:  ES64L-G16RevC.02  7-Dec-2021

 ----------------------------------------------------------
 # td=(50-50,nstates=3) b3lyp/6-31+g(d,p) geom=connectivity
 ----------------------------------------------------------

 -------------------
 Title Card Required
 -------------------
 Symbolic Z-matrix:
 Charge =  0 Multiplicity = 1

                         Standard orientation:
 ---------------------------------------------------------------------
 Center     Atomic      Atomic             Coordinates (Angstroms)
 Number     Number       Type             X           Y           Z
 ---------------------------------------------------------------------
      1          6           0       -0.406554   -3.283657   -0.922487
      2          8           0       -1.450254   -2.393995   -0.525194
      3          6           0       -1.203475   -1.076102   -0.418716
      4          6           0        0.001992   -0.486887   -0.663458
      5          6           0        0.223202    0.933508   -0.516662
      6          6           0        1.459128    1.483283   -0.794712
      7          6           0        1.770140    2.867520   -0.646033
      8          7           0        2.185973    3.955897   -0.574519
      9          6           0        2.636198    0.656945   -1.308912
     10          6           0        3.309830   -0.248188   -0.280870
     11          6           0        3.514071    0.166709    1.042528
     12          6           0        4.174537   -0.661259    1.953153
     13          6           0        4.642728   -1.916671    1.555158
     14          6           0        4.447057   -2.337821    0.237889
     15          6           0        3.783713   -1.508431   -0.671137
     16          6           0       -0.934530    1.719791   -0.067373
     17          8           0       -0.698917    3.031187    0.077690
     18          6           0       -1.747389    3.908699    0.501249
     19          6           0       -2.145117    1.128870    0.166668
     20          6           0       -2.358723   -0.280190    0.002590
     21          6           0       -3.614873   -0.834443    0.242811
     22          6           0       -3.980429   -2.209296    0.117139
     23          7           0       -4.389095   -3.298386    0.045625
     24          6           0       -4.688796    0.015250    0.655178
     25          7           0       -5.549666    0.725828    0.990886
     26          1           0        0.423013   -3.254622   -0.207470
     27          1           0       -0.859999   -4.274284   -0.928675
     28          1           0       -0.045480   -3.033347   -1.926843
     29          1           0        0.839942   -1.103985   -0.950245
     30          1           0        2.302772    0.049759   -2.158362
     31          1           0        3.381980    1.350894   -1.710653
     32          1           0        3.159137    1.140965    1.366387
     33          1           0        4.324396   -0.323164    2.974381
     34          1           0        5.155618   -2.559233    2.264514
     35          1           0        4.808773   -3.310139   -0.084295
     36          1           0        3.641013   -1.842638   -1.696655
     37          1           0       -1.293539    4.898189    0.537855
     38          1           0       -2.573005    3.900588   -0.218203
     39          1           0       -2.111734    3.625376    1.494374
     40          1           0       -2.986259    1.728961    0.485953
 ---------------------------------------------------------------------

 SCF Done:  E(RB3LYP) =  -1085.81328288     A.U. after   17 cycles

 Excitation energies and oscillator strengths:

 Excited State   1:      Triplet-A      0.9366 eV 1323.74 nm  f=0.0000  <S**2>=2.000
      86 -> 87         0.74086
      86 <- 87         0.25445
 This state for optimization and/or second-order correction.
 Total Energy, E(TD-HF/TD-DFT) =  -1085.77886278
 Copying the excited state density for this state as the 1-particle RhoCI density.

 Excited State   2:      Triplet-A      1.9692 eV  629.62 nm  f=0.0000  <S**2>=2.000
      85 -> 87         0.69328

 Excited State   3:      Singlet-A      2.6459 eV  468.58 nm  f=0.0014  <S**2>=0.000
      85 -> 87         0.69963

 Excited State   4:      Triplet-A      2.8592 eV  433.63 nm  f=0.0000  <S**2>=2.000
      82 -> 87        -0.10933
      84 -> 87         0.68816

 Excited State   5:      Singlet-A      2.8650 eV  432.75 nm  f=0.3166  <S**2>=0.000
      84 -> 87         0.53380
      86 -> 87         0.46043

 Excited State   6:      Singlet-A      3.0108 eV  411.80 nm  f=0.5840  <S**2>=0.000
      83 -> 87         0.11840
      84 -> 87        -0.45771
      86 -> 87         0.52978
      86 <- 87        -0.11587

 The electronic state is 1-A.
 Alpha  occ. eigenvalues --  -19.23211 -19.22928 -14.36201 -14.35718 -14.35188
 Alpha  occ. eigenvalues --  -10.30907 -10.30597 -10.28375 -10.27666 -10.27345
 Alpha  occ. eigenvalues --  -10.27325 -10.27232 -10.26536 -10.25565 -10.25088
 Alpha  occ. eigenvalues --  -10.24940 -10.23811 -10.23444 -10.23176 -10.23126
 Alpha  occ. eigenvalues --  -10.21839 -10.21770 -10.21640 -10.21513 -10.21494
 Alpha  occ. eigenvalues --   -1.12021  -1.11748  -0.93668  -0.92791  -0.91667
 Alpha  occ. eigenvalues --   -0.90782  -0.88605  -0.86670  -0.82686  -0.80632
 Alpha  occ. eigenvalues --   -0.78851  -0.77028  -0.76340  -0.75728  -0.71750
 Alpha  occ. eigenvalues --   -0.69876  -0.65917  -0.64292  -0.63046  -0.61150
 Alpha  occ. eigenvalues --   -0.59756  -0.59194  -0.57014  -0.54230  -0.53773
 Alpha  occ. eigenvalues --   -0.53110  -0.51186  -0.50595  -0.49905  -0.49333
 Alpha  occ. eigenvalues --   -0.49134  -0.48221  -0.46933  -0.45355  -0.45099
 Alpha  occ. eigenvalues --   -0.44372  -0.44183  -0.44060  -0.43283  -0.41519
 Alpha  occ. eigenvalues --   -0.41009  -0.39375  -0.39132  -0.38825  -0.38471
 Alpha  occ. eigenvalues --   -0.38344  -0.38018  -0.37915  -0.37594  -0.36776
 Alpha  occ. eigenvalues --   -0.36524  -0.35659  -0.35518  -0.34085  -0.33701
 Alpha  occ. eigenvalues --   -0.33222  -0.32583  -0.27775  -0.27143  -0.26389
 Alpha  occ. eigenvalues --   -0.24136
 Alpha virt. eigenvalues --   -0.14333  -0.04376  -0.03868  -0.03726  -0.02217
 Alpha virt. eigenvalues --   -0.02018  -0.01514  -0.00768   0.00001   0.00259
 Alpha virt. eigenvalues --    0.00504   0.01153   0.01777   0.02297   0.02505

 Mulliken charges:
               1
     1  C   -0.119204
     2  O   -0.338388
     3  C    0.177474
     4  C   -0.763063
     5  C    0.296810
     6  C    0.290738
     7  C    0.388954
     8  N   -0.481466
     9  C   -0.577800
    10  C    0.560931
    11  C   -0.408100
    12  C   -0.423958
    13  C   -0.088126
    14  C   -0.121037
    15  C    0.036117
    16  C    0.020829
    17  O   -0.338025
    18  C   -0.121016
    19  C   -0.811035
    20  C    1.013358
    21  C    0.959280
    22  C    0.108394
    23  N   -0.534041
    24  C   -0.465623
    25  N   -0.478417
    26  H    0.160352
    27  H    0.171480
    28  H    0.147684
    29  H    0.127087
    30  H    0.150898
    31  H    0.186002
    32  H    0.131656
    33  H    0.132715
    34  H    0.130162
    35  H    0.128970
    36  H    0.108937
    37  H    0.170834
    38  H    0.159695
    39  H    0.159249
    40  H    0.150692
 Sum of Mulliken charges =  -0.00000

 Dipole moment (field-independent basis, Debye):
    X=              5.9553    Y=             -1.0767    Z=             -1.1985  Tot=              6.1694
 Quadrupole moment (field-independent basis, Debye-Ang):
   XX=           -187.0059   YY=           -155.0041   ZZ=           -140.0079
   XY=            -32.2562   XZ=              6.0904   YZ=              6.7085

 Normal termination of Gaussian 16 at Wed Aug 27 20:19:29 2025.
