 Gaussian 16, Revision C.02,
 Gaussian 16:  ES64L-G16RevC.02  7-Dec-2021

 ----------------------------------------------------------
 # td=(50-50,nstates=3) b3lyp/6-31+g(d,p) geom=connectivity
 ----------------------------------------------------------

 -------------------
 Title Card Required
 -------------------
 Symbolic Z-matrix:
 Charge =  0 Multiplicity = 1

                         Standard orientation:
 ---------------------------------------------------------------------
 Center     Atomic      Atomic             Coordinates (Angstroms)
 Number     Number       Type             X           Y           Z
 ---------------------------------------------------------------------
      1          6           0       -4.641418    1.257490    1.224858
      2          6           0       -5.015386    0.069969    0.347707
      3          8           0       -4.915181   -1.099112    1.174635
      4          6           0       -4.156601   -0.058061   -0.935880
      5          6           0       -2.656700   -0.056447   -0.734229
      6          6           0       -1.988683   -1.156748   -0.173605
      7          6           0       -0.607502   -1.143553    0.011099
      8          6           0        0.165252   -0.028431   -0.358909
      9          6           0        1.636597   -0.016853   -0.166249
     10          6           0        2.304665    1.152637    0.243105
     11          6           0        3.683979    1.171475    0.422193
     12          6           0        4.437755    0.006502    0.196560
     13          6           0        5.859994    0.018475    0.380096
     14          7           0        7.014768    0.028500    0.528758
     15          6           0        3.785422   -1.170306   -0.210596
     16          6           0        2.405823   -1.174639   -0.388494
     17          6           0       -0.501840    1.072262   -0.921550
     18          6           0       -1.884485    1.053813   -1.105151
     19          1           0       -5.325647    1.323268    2.075218
     20          1           0       -3.623252    1.147954    1.608907
     21          1           0       -4.699417    2.191690    0.656304
     22          1           0       -6.060094    0.187518    0.019779
     23          1           0       -5.352286   -1.837390    0.730366
     24          1           0       -4.460647   -0.980469   -1.450186
     25          1           0       -4.432078    0.768171   -1.602944
     26          1           0       -2.559072   -2.024594    0.140896
     27          1           0       -0.126674   -2.001107    0.472743
     28          1           0        1.732548    2.052067    0.447314
     29          1           0        4.182373    2.079153    0.746238
     30          1           0        4.364652   -2.069159   -0.394551
     31          1           0        1.919453   -2.083145   -0.729051
     32          1           0        0.066509    1.938461   -1.247677
     33          1           0       -2.369528    1.915452   -1.557464
 ---------------------------------------------------------------------

 SCF Done:  E(RB3LYP) =  -748.758557346     A.U. after   16 cycles

 Excitation energies and oscillator strengths:

 Excited State   1:      Triplet-A      2.9871 eV  415.07 nm  f=0.0000  <S**2>=2.000
      60 -> 64        -0.16559
      61 -> 65         0.16240
      62 -> 66        -0.12489
      63 -> 64         0.62930
 This state for optimization and/or second-order correction.
 Total Energy, E(TD-HF/TD-DFT) =  -748.648783653
 Copying the excited state density for this state as the 1-particle RhoCI density.

 Excited State   2:      Triplet-A      3.7273 eV  332.64 nm  f=0.0000  <S**2>=2.000
      59 -> 64        -0.23487
      60 -> 64         0.34017
      61 -> 65        -0.21390
      62 -> 66        -0.32664
      63 -> 67         0.27922
      63 -> 68        -0.21080
      63 -> 69         0.10125

 Excited State   3:      Triplet-A      4.1851 eV  296.25 nm  f=0.0000  <S**2>=2.000
      60 -> 65        -0.11692
      61 -> 64         0.48897
      62 -> 64         0.25119
      63 -> 65         0.37030
      63 -> 66        -0.10489

 Excited State   4:      Singlet-A      4.2846 eV  289.37 nm  f=0.7033  <S**2>=0.000
      63 -> 64         0.69755

 Excited State   5:      Singlet-A      4.6355 eV  267.46 nm  f=0.0029  <S**2>=0.000
      61 -> 64         0.10945
      62 -> 64         0.59022
      63 -> 65        -0.22608
      63 -> 66         0.27048

 Excited State   6:      Singlet-A      4.7018 eV  263.70 nm  f=0.0019  <S**2>=0.000
      61 -> 64        -0.40886
      62 -> 64         0.20531
      63 -> 65         0.50227
      63 -> 66         0.14371

 The electronic state is 1-A.
 Alpha  occ. eigenvalues --  -19.16721 -14.34511 -10.25626 -10.24692 -10.23700
 Alpha  occ. eigenvalues --  -10.23141 -10.22661 -10.22659 -10.21871 -10.21865
 Alpha  occ. eigenvalues --  -10.21862 -10.21448 -10.20899 -10.20805 -10.20652
 Alpha  occ. eigenvalues --  -10.20621 -10.20362 -10.18465  -1.03532  -0.91510
 Alpha  occ. eigenvalues --   -0.89197  -0.87160  -0.81913  -0.78939  -0.77774
 Alpha  occ. eigenvalues --   -0.76056  -0.75262  -0.70522  -0.65867  -0.64452
 Alpha  occ. eigenvalues --   -0.61614  -0.61065  -0.58662  -0.57121  -0.53847
 Alpha  occ. eigenvalues --   -0.52313  -0.49720  -0.48066  -0.47255  -0.47112
 Alpha  occ. eigenvalues --   -0.46163  -0.44986  -0.44832  -0.43558  -0.43140
 Alpha  occ. eigenvalues --   -0.41152  -0.39955  -0.39561  -0.38634  -0.38418
 Alpha  occ. eigenvalues --   -0.37755  -0.36850  -0.36735  -0.36119  -0.35600
 Alpha  occ. eigenvalues --   -0.34884  -0.33708  -0.33643  -0.29401  -0.28359
 Alpha  occ. eigenvalues --   -0.28253  -0.26796  -0.24239
 Alpha virt. eigenvalues --   -0.07142  -0.03785  -0.02674  -0.02224  -0.00912
 Alpha virt. eigenvalues --   -0.00371   0.00617   0.01323   0.01811   0.02267
 Alpha virt. eigenvalues --    0.02442   0.03021   0.03311   0.03602   0.04011

 Mulliken charges:
               1
     1  C   -0.495681
     2  C    0.060993
     3  O   -0.505229
     4  C   -0.327196
     5  C    0.617622
     6  C   -0.306027
     7  C   -0.258009
     8  C    0.274783
     9  C    0.275475
    10  C    0.112604
    11  C   -0.479370
    12  C    0.521282
    13  C   -0.134347
    14  N   -0.537905
    15  C   -0.457458
    16  C    0.083722
    17  C    0.084994
    18  C   -0.771790
    19  H    0.157176
    20  H    0.169910
    21  H    0.140997
    22  H    0.115581
    23  H    0.342153
    24  H    0.139514
    25  H    0.138609
    26  H    0.128220
    27  H    0.119915
    28  H    0.129255
    29  H    0.147192
    30  H    0.147145
    31  H    0.129274
    32  H    0.119738
    33  H    0.116860
 Sum of Mulliken charges =  -0.00000

 Dipole moment (field-independent basis, Debye):
    X=             -6.7811    Y=              0.0081    Z=             -2.0148  Tot=              7.0741
 Quadrupole moment (field-independent basis, Debye-Ang):
   XX=           -141.3516   YY=            -95.1425   ZZ=           -113.3229
   XY=              0.8233   XZ=              3.5389   YZ=              1.6368

 Normal termination of Gaussian 16 at Wed Aug 27 20:12:24 2025.
