 Gaussian 16, Revision C.02,
 Gaussian 16:  ES64L-G16RevC.02  7-Dec-2021

 ----------------------------------------------------------
 # td=(50-50,nstates=3) b3lyp/6-31+g(d,p) geom=connectivity
 ----------------------------------------------------------

 -------------------
 Title Card Required
 -------------------
 Symbolic Z-matrix:
 Charge =  0 Multiplicity = 1

                         Standard orientation:
 ---------------------------------------------------------------------
 Center     Atomic      Atomic             Coordinates (Angstroms)
 Number     Number       Type             X           Y           Z
 ---------------------------------------------------------------------
      1          6           0        2.413015    3.664320    0.104290
      2          6           0        1.560290    2.460547    0.531054
      3          6           0        2.192784    1.731532    1.725411
      4          6           0        1.317818    1.535014   -0.697229
      5          6           0        0.376760    0.378440   -0.424067
      6          6           0       -0.960477    0.663686   -0.389362
      7          6           0       -1.984377   -0.300846   -0.082964
      8          6           0       -3.329894    0.052865   -0.062942
      9          6           0       -4.351771   -0.894214    0.247189
     10          7           0       -5.179536   -1.673501    0.501782
     11          6           0       -3.763734    1.382341   -0.349526
     12          7           0       -4.107242    2.470527   -0.584408
     13          6           0       -1.559505   -1.649256    0.206835
     14          6           0       -0.245941   -1.971466    0.163758
     15          6           0        0.793500   -1.006748   -0.169038
     16          6           0        2.098204   -1.495419   -0.237676
     17          6           0        3.285241   -0.778206   -0.579742
     18          7           0        4.310666   -0.294597   -0.849071
     19          6           0        2.375877   -2.875321    0.034931
     20          7           0        2.622245   -3.992241    0.255121
     21          1           0        1.946636    4.216585   -0.719139
     22          1           0        2.546598    4.359319    0.939921
     23          1           0        3.408305    3.343427   -0.225050
     24          1           0        0.576264    2.834850    0.848002
     25          1           0        1.577711    0.893012    2.070322
     26          1           0        2.307737    2.418346    2.570444
     27          1           0        3.187695    1.347365    1.475042
     28          1           0        0.864888    2.143967   -1.487958
     29          1           0        2.277411    1.201055   -1.088596
     30          1           0       -1.275741    1.681619   -0.598315
     31          1           0       -2.300545   -2.402550    0.451886
     32          1           0        0.053356   -2.991932    0.373939
 ---------------------------------------------------------------------

 SCF Done:  E(RB3LYP) =  -835.872582562     A.U. after   17 cycles

 Excitation energies and oscillator strengths:

 Excited State   1:      Triplet-A      0.6016 eV 2061.00 nm  f=0.0000  <S**2>=2.000
      68 -> 69         0.79879
      68 <- 69         0.38915
 This state for optimization and/or second-order correction.
 Total Energy, E(TD-HF/TD-DFT) =  -835.850475142
 Copying the excited state density for this state as the 1-particle RhoCI density.

 Excited State   2:      Triplet-A      2.3623 eV  524.84 nm  f=0.0000  <S**2>=2.000
      67 -> 69         0.68598
      68 -> 71        -0.11018

 Excited State   3:      Singlet-A      2.7978 eV  443.15 nm  f=0.5130  <S**2>=0.000
      67 -> 69        -0.43043
      68 -> 69         0.56991
      68 <- 69        -0.13038

 Excited State   4:      Triplet-A      2.9590 eV  419.01 nm  f=0.0000  <S**2>=2.000
      65 -> 69        -0.42217
      66 -> 69         0.50705
      68 -> 70        -0.18765

 Excited State   5:      Singlet-A      3.0129 eV  411.51 nm  f=0.4718  <S**2>=0.000
      67 -> 69         0.55743
      68 -> 69         0.44145
      68 <- 69        -0.11506

 Excited State   6:      Singlet-A      3.7734 eV  328.57 nm  f=0.0030  <S**2>=0.000
      65 -> 69         0.33834
      66 -> 69         0.60631

 The electronic state is 1-A.
 Alpha  occ. eigenvalues --  -14.39057 -14.38953 -14.38895 -14.38827 -10.32171
 Alpha  occ. eigenvalues --  -10.31722 -10.30138 -10.29493 -10.28388 -10.28114
 Alpha  occ. eigenvalues --  -10.28026 -10.27956 -10.27628 -10.26592 -10.26465
 Alpha  occ. eigenvalues --  -10.25996 -10.22812 -10.22647 -10.19948 -10.19779
 Alpha  occ. eigenvalues --   -0.96908  -0.96430  -0.95002  -0.94791  -0.93675
 Alpha  occ. eigenvalues --   -0.89396  -0.85896  -0.84178  -0.81443  -0.77255
 Alpha  occ. eigenvalues --   -0.73233  -0.70859  -0.68967  -0.67304  -0.64012
 Alpha  occ. eigenvalues --   -0.60155  -0.59961  -0.58677  -0.57072  -0.51850
 Alpha  occ. eigenvalues --   -0.49835  -0.49278  -0.48401  -0.47297  -0.46177
 Alpha  occ. eigenvalues --   -0.45954  -0.45268  -0.42847  -0.42335  -0.41296
 Alpha  occ. eigenvalues --   -0.41144  -0.41134  -0.40827  -0.40693  -0.40541
 Alpha  occ. eigenvalues --   -0.39368  -0.38750  -0.38582  -0.38410  -0.38406
 Alpha  occ. eigenvalues --   -0.37347  -0.37252  -0.36877  -0.35994  -0.35117
 Alpha  occ. eigenvalues --   -0.34516  -0.31829  -0.27372
 Alpha virt. eigenvalues --   -0.18302  -0.07304  -0.07049  -0.04955  -0.04129
 Alpha virt. eigenvalues --   -0.02092  -0.00794  -0.00460  -0.00175   0.00202
 Alpha virt. eigenvalues --    0.00543   0.00852   0.01045   0.01756   0.02020

 Mulliken charges:
               1
     1  C   -0.611730
     2  C    0.192735
     3  C   -0.566271
     4  C   -0.412358
     5  C   -0.080464
     6  C   -0.203943
     7  C    1.544771
     8  C    0.636663
     9  C   -0.267934
    10  N   -0.459661
    11  C   -0.396172
    12  N   -0.459169
    13  C   -0.393173
    14  C   -0.442336
    15  C    0.895961
    16  C    0.724457
    17  C   -0.303467
    18  N   -0.439738
    19  C   -0.358560
    20  N   -0.449874
    21  H    0.143754
    22  H    0.151110
    23  H    0.161119
    24  H    0.134501
    25  H    0.141197
    26  H    0.152184
    27  H    0.166312
    28  H    0.153596
    29  H    0.147741
    30  H    0.156265
    31  H    0.172934
    32  H    0.169551
 Sum of Mulliken charges =  -0.00000

 Dipole moment (field-independent basis, Debye):
    X=              0.9865    Y=              1.8667    Z=              0.2789  Tot=              2.1297
 Quadrupole moment (field-independent basis, Debye-Ang):
   XX=           -164.6379   YY=           -134.1436   ZZ=           -117.9506
   XY=             12.3406   XZ=              3.1661   YZ=              3.6580

 Normal termination of Gaussian 16 at Wed Aug 27 20:12:28 2025.
