 Gaussian 16, Revision C.02,
 Gaussian 16:  ES64L-G16RevC.02  7-Dec-2021

 ----------------------------------------------------------
 # td=(50-50,nstates=3) b3lyp/6-31+g(d,p) geom=connectivity
 ----------------------------------------------------------

 -------------------
 Title Card Required
 -------------------
 Symbolic Z-matrix:
 Charge =  0 Multiplicity = 1

                         Standard orientation:
 ---------------------------------------------------------------------
 Center     Atomic      Atomic             Coordinates (Angstroms)
 Number     Number       Type             X           Y           Z
 ---------------------------------------------------------------------
      1          6           0       -4.973649    0.736574    1.577837
      2          6           0       -3.519036    0.290502    1.644819
      3          6           0       -3.188153   -0.550458    0.418920
      4          8           0       -1.849102   -0.961131    0.480605
      5          6           0       -1.606656   -1.726656   -0.668648
      6          8           0       -0.260373   -2.027325   -0.418117
      7          6           0        0.477726   -0.894312   -0.332045
      8          6           0        1.794731   -1.006974   -0.094145
      9          6           0        2.715496    0.175989    0.022311
     10          6           0        4.026607    0.063841    0.259079
     11          6           0        4.772086    1.140980    0.348652
     12          7           0        5.429555    2.090957    0.427651
     13          6           0        4.568642   -1.123511    0.402097
     14          7           0        5.046676   -2.170592    0.528181
     15          6           0        2.019612    1.497376   -0.153222
     16          6           0        0.702565    1.609966   -0.391177
     17          6           0       -0.218200    0.427003   -0.507633
     18          6           0       -1.529247    0.539171   -0.744475
     19          6           0       -2.274727   -0.537968   -0.834048
     20          7           0       -2.932130   -1.488011   -0.913010
     21          6           0       -2.071387    1.726430   -0.887475
     22          7           0       -2.549486    2.773577   -1.013596
     23          1           0       -5.215454    1.351073    2.473814
     24          1           0       -5.133047    1.343298    0.658441
     25          1           0       -5.635182   -0.158102    1.552325
     26          1           0       -3.359574   -0.316295    2.564237
     27          1           0       -2.857555    1.185160    1.670414
     28          1           0       -3.347551    0.056266   -0.500475
     29          1           0       -3.849634   -1.445115    0.393325
     30          1           0       -2.242176   -2.639558   -0.709093
     31          1           0       -1.740890   -1.138421   -1.603870
     32          1           0        2.220828   -2.014542    0.021233
     33          1           0        2.618845    2.417191   -0.083320
     34          1           0        0.276427    2.617461   -0.506610
 ---------------------------------------------------------------------

 SCF Done:  E(RB3LYP) =  -985.158527410     A.U. after   23 cycles

 Excitation energies and oscillator strengths:

 Excited State   1:      Triplet-A      -0.5475 eV    -2264.58 nm  f=-0.0000  <S**2>=2.000
      76 -> 77         0.70843
 This state for optimization and/or second-order correction.
 Total Energy, E(TD-HF/TD-DFT) =  -985.178647434
 Copying the excited state density for this state as the 1-particle RhoCI density.

 Excited State   2:      Singlet-A      0.9558 eV 1297.12 nm  f=0.0767  <S**2>=0.000
      76 -> 77         0.72720
      76 -> 78        -0.16275
      76 <- 77        -0.26860

 Excited State   3:      Triplet-A      1.5087 eV  821.77 nm  f=0.0000  <S**2>=2.000
      75 -> 77         0.69088
      76 -> 78        -0.12766

 Excited State   4:      Triplet-A      1.7562 eV  705.99 nm  f=0.0000  <S**2>=2.000
      75 -> 77         0.11471
      76 -> 78         0.68453

 Excited State   5:      Singlet-A      2.2696 eV  546.29 nm  f=0.0182  <S**2>=0.000
      75 -> 77         0.28540
      76 -> 77         0.11931
      76 -> 78         0.63008

 Excited State   6:      Singlet-A      2.5532 eV  485.60 nm  f=0.1939  <S**2>=0.000
      74 -> 77        -0.18334
      75 -> 77         0.56195
      76 -> 77        -0.13305
      76 -> 78        -0.21304
      76 -> 79        -0.25650

 The electronic state is 1-A.
 Alpha  occ. eigenvalues --  -19.28519 -19.24302 -14.37734 -14.36363 -14.34606
 Alpha  occ. eigenvalues --  -14.34519 -10.43795 -10.43227 -10.35058 -10.30396
 Alpha  occ. eigenvalues --  -10.26996 -10.26880 -10.26509 -10.26345 -10.24461
 Alpha  occ. eigenvalues --  -10.24361 -10.23877 -10.23647 -10.23401 -10.23353
 Alpha  occ. eigenvalues --  -10.23212 -10.22428  -1.45045  -1.16472  -1.14387
 Alpha  occ. eigenvalues --   -0.99905  -0.98956  -0.94523  -0.93991  -0.91451
 Alpha  occ. eigenvalues --   -0.88973  -0.85365  -0.82986  -0.81362  -0.79039
 Alpha  occ. eigenvalues --   -0.76032  -0.73418  -0.70596  -0.68757  -0.67394
 Alpha  occ. eigenvalues --   -0.65813  -0.65349  -0.63352  -0.62483  -0.59295
 Alpha  occ. eigenvalues --   -0.57753  -0.56423  -0.52951  -0.52163  -0.49872
 Alpha  occ. eigenvalues --   -0.48456  -0.47333  -0.46593  -0.45635  -0.44415
 Alpha  occ. eigenvalues --   -0.44102  -0.42870  -0.42229  -0.41216  -0.40353
 Alpha  occ. eigenvalues --   -0.39545  -0.39145  -0.38347  -0.38144  -0.37605
 Alpha  occ. eigenvalues --   -0.37034  -0.36928  -0.35645  -0.35146  -0.35006
 Alpha  occ. eigenvalues --   -0.33837  -0.31838  -0.29255  -0.28824  -0.25632
 Alpha  occ. eigenvalues --   -0.19746
 Alpha virt. eigenvalues --   -0.15243  -0.08296  -0.06058  -0.04625  -0.03408
 Alpha virt. eigenvalues --   -0.02880  -0.02297  -0.01442  -0.00363  -0.00246
 Alpha virt. eigenvalues --    0.00011   0.00857   0.01587   0.01766   0.01950

 Mulliken charges:
               1
     1  C   -0.513639
     2  C    0.030797
     3  C   -0.544581
     4  O   -0.209792
     5  C    0.059444
     6  O   -0.356678
     7  C   -0.334789
     8  C   -0.574259
     9  C    1.348330
    10  C    0.652813
    11  C   -0.080663
    12  N   -0.548670
    13  C   -0.496154
    14  N   -0.546758
    15  C   -0.512373
    16  C   -0.737246
    17  C    1.166180
    18  C    0.249546
    19  C    0.672766
    20  N   -0.555773
    21  C    0.387288
    22  N   -0.551526
    23  H    0.164861
    24  H    0.160310
    25  H    0.151899
    26  H    0.163938
    27  H    0.159416
    28  H    0.172270
    29  H    0.202142
    30  H    0.198822
    31  H    0.129250
    32  H    0.168944
    33  H    0.163185
    34  H    0.160700
 Sum of Mulliken charges =  -0.00000

 Dipole moment (field-independent basis, Debye):
    X=            -11.0369    Y=             -2.3485    Z=              0.1413  Tot=             11.2849
 Quadrupole moment (field-independent basis, Debye-Ang):
   XX=           -166.2920   YY=           -147.8880   ZZ=           -127.7635
   XY=             11.2770   XZ=            -11.4247   YZ=              3.6894

 Normal termination of Gaussian 16 at Wed Aug 27 07:51:35 2025.
