 Gaussian 16, Revision C.02,
 Gaussian 16:  ES64L-G16RevC.02  7-Dec-2021

 ----------------------------------------------------------
 # td=(50-50,nstates=3) b3lyp/6-31+g(d,p) geom=connectivity
 ----------------------------------------------------------

 -------------------
 Title Card Required
 -------------------
 Symbolic Z-matrix:
 Charge =  0 Multiplicity = 1

                         Standard orientation:
 ---------------------------------------------------------------------
 Center     Atomic      Atomic             Coordinates (Angstroms)
 Number     Number       Type             X           Y           Z
 ---------------------------------------------------------------------
      1          6           0        2.971966    0.625053    0.000143
      2          6           0        1.721352   -0.217528    0.000050
      3          6           0        1.801562   -1.615523    0.000071
      4          6           0        0.658862   -2.415250   -0.000018
      5          6           0       -0.604394   -1.829096   -0.000129
      6          6           0       -0.703959   -0.441442   -0.000196
      7          7           0       -2.062992    0.139903   -0.000379
      8          8           0       -2.162189    1.364192    0.000324
      9          8           0       -3.014466   -0.642065    0.000259
     10          6           0        0.437991    0.386012   -0.000064
     11          6           0        0.397784    1.820445   -0.000079
     12          7           0        0.551451    2.974045   -0.000160
     13          1           0        3.862146   -0.007622    0.000311
     14          1           0        3.011398    1.277739   -0.878183
     15          1           0        3.011169    1.277892    0.878363
     16          1           0        2.782428   -2.081360    0.000164
     17          1           0        0.750325   -3.496506    0.000002
     18          1           0       -1.510436   -2.420826   -0.000207
 ---------------------------------------------------------------------

 SCF Done:  E(RB3LYP) =  -568.331117318     A.U. after   16 cycles

 Excitation energies and oscillator strengths:

 Excited State   1:      Triplet-A      2.7553 eV  449.99 nm  f=0.0000  <S**2>=2.000
      38 -> 43         0.66153
      38 -> 44         0.14934
      38 -> 45        -0.20093
      42 -> 43        -0.13207
      38 <- 43         0.15116
 This state for optimization and/or second-order correction.
 Total Energy, E(TD-HF/TD-DFT) =  -568.229862860
 Copying the excited state density for this state as the 1-particle RhoCI density.

 Excited State   2:      Triplet-A      3.0621 eV  404.90 nm  f=0.0000  <S**2>=2.000
      37 -> 43         0.10429
      39 -> 43        -0.12375
      40 -> 43         0.66010
      40 -> 44         0.10864
      40 -> 45        -0.13907

 Excited State   3:      Triplet-A      3.0933 eV  400.81 nm  f=0.0000  <S**2>=2.000
      41 -> 43         0.45806
      41 -> 45         0.13083
      42 -> 43         0.39258
      42 -> 44        -0.33448

 Excited State   4:      Singlet-A      3.5675 eV  347.54 nm  f=0.0000  <S**2>=0.000
      40 -> 43         0.68020
      40 -> 45        -0.10312

 Excited State   5:      Singlet-A      3.9603 eV  313.07 nm  f=0.0456  <S**2>=0.000
      41 -> 44         0.15052
      42 -> 43         0.68623

 Excited State   6:      Singlet-A      4.1166 eV  301.18 nm  f=0.0002  <S**2>=0.000
      37 -> 43         0.10857
      39 -> 43         0.67795

 The electronic state is 1-A.
 Alpha  occ. eigenvalues --  -19.21273 -19.21077 -14.60030 -14.35889 -10.29302
 Alpha  occ. eigenvalues --  -10.28044 -10.26211 -10.25324 -10.24752 -10.24696
 Alpha  occ. eigenvalues --  -10.24537 -10.21812  -1.25368  -1.08139  -0.93837
 Alpha  occ. eigenvalues --   -0.91480  -0.84639  -0.82509  -0.75287  -0.72739
 Alpha  occ. eigenvalues --   -0.67138  -0.62030  -0.59776  -0.56021  -0.55879
 Alpha  occ. eigenvalues --   -0.54235  -0.51621  -0.50825  -0.46418  -0.46260
 Alpha  occ. eigenvalues --   -0.43304  -0.41574  -0.41305  -0.40330  -0.38048
 Alpha  occ. eigenvalues --   -0.37502  -0.36036  -0.33604  -0.33140  -0.31240
 Alpha  occ. eigenvalues --   -0.30798  -0.29285
 Alpha virt. eigenvalues --   -0.12446  -0.07685  -0.03458  -0.01492   0.00051
 Alpha virt. eigenvalues --    0.01054   0.01189   0.02951   0.03080   0.04083
 Alpha virt. eigenvalues --    0.04499   0.04874   0.06078   0.06123   0.06682

 Mulliken charges:
               1
     1  C   -0.468867
     2  C    0.261695
     3  C   -0.570560
     4  C   -0.119040
     5  C    0.445180
     6  C    0.477501
     7  N   -0.443970
     8  O    0.070684
     9  O    0.000405
    10  C    0.036534
    11  C   -0.187887
    12  N   -0.502870
    13  H    0.153053
    14  H    0.189589
    15  H    0.189590
    16  H    0.142141
    17  H    0.148062
    18  H    0.178758
 Sum of Mulliken charges =  -0.00000

 Dipole moment (field-independent basis, Debye):
    X=              4.6510    Y=             -5.5576    Z=             -0.0009  Tot=              7.2470
 Quadrupole moment (field-independent basis, Debye-Ang):
   XX=            -71.4955   YY=            -75.7892   ZZ=            -68.9204
   XY=             -0.8213   XZ=              0.0041   YZ=              0.0002

 Normal termination of Gaussian 16 at Wed Aug 27 07:47:12 2025.
