 Gaussian 16, Revision C.02,
 Gaussian 16:  ES64L-G16RevC.02  7-Dec-2021

 ----------------------------------------------------------
 # td=(50-50,nstates=3) b3lyp/6-31+g(d,p) geom=connectivity
 ----------------------------------------------------------

 -------------------
 Title Card Required
 -------------------
 Symbolic Z-matrix:
 Charge =  0 Multiplicity = 1

                         Standard orientation:
 ---------------------------------------------------------------------
 Center     Atomic      Atomic             Coordinates (Angstroms)
 Number     Number       Type             X           Y           Z
 ---------------------------------------------------------------------
      1          6           0        5.870288   -4.045212    1.318360
      2          6           0        5.345901   -3.331657    0.067028
      3          6           0        4.739613   -1.955884    0.373181
      4          6           0        4.211887   -1.241943   -0.891532
      5          6           0        3.662729    0.142015   -0.612610
      6          6           0        4.646944    1.168798   -0.500418
      7          7           0        5.476680    1.986202   -0.417344
      8          6           0        2.328076    0.467920   -0.427422
      9          6           0        1.910780    1.823700   -0.147923
     10          6           0        0.599130    2.156164    0.039704
     11          8           0        0.157717    3.402976    0.301488
     12          6           0        1.091340    4.478564    0.397343
     13          6           0       -0.455629    1.147318   -0.032062
     14          6           0       -1.809871    1.415958    0.147694
     15          6           0       -2.799194    0.397186    0.068736
     16          6           0       -3.687855   -0.443031    0.010811
     17         14           0       -5.066929   -1.676975   -0.068360
     18          6           0       -4.311934   -3.386870   -0.339976
     19          6           0       -6.004241   -1.609424    1.568183
     20          6           0       -6.191162   -1.204156   -1.508713
     21          6           0       -2.363875    2.710652    0.425011
     22          7           0       -2.936998    3.699683    0.651499
     23          6           0       -0.022793   -0.204258   -0.310948
     24          6           0        1.279945   -0.531429   -0.499885
     25          1           0        6.297669   -5.022027    1.068493
     26          1           0        6.651788   -3.455821    1.811550
     27          1           0        5.068145   -4.209092    2.047447
     28          1           0        4.590911   -3.961131   -0.424497
     29          1           0        6.163679   -3.212565   -0.656659
     30          1           0        5.494034   -1.321644    0.856435
     31          1           0        3.917732   -2.063718    1.093538
     32          1           0        3.448820   -1.861467   -1.371651
     33          1           0        5.032206   -1.150522   -1.613899
     34          1           0        2.675496    2.587363   -0.089288
     35          1           0        1.804608    4.305104    1.211054
     36          1           0        1.630370    4.613053   -0.547296
     37          1           0        0.491212    5.362402    0.611553
     38          1           0       -5.097613   -4.149880   -0.391482
     39          1           0       -3.744417   -3.427178   -1.276098
     40          1           0       -3.635450   -3.657509    0.478008
     41          1           0       -6.840183   -2.319001    1.562358
     42          1           0       -6.411362   -0.608888    1.748332
     43          1           0       -5.351679   -1.862809    2.410434
     44          1           0       -6.602305   -0.198106   -1.374203
     45          1           0       -5.647250   -1.220197   -2.459160
     46          1           0       -7.030709   -1.905094   -1.587487
     47          1           0       -0.786746   -0.971338   -0.367176
     48          1           0        1.538051   -1.563784   -0.701620
 ---------------------------------------------------------------------

 SCF Done:  E(RB3LYP) =  -1250.80176335     A.U. after   16 cycles

 Excitation energies and oscillator strengths:

 Excited State   1:      Triplet-A      0.6698 eV 1850.96 nm  f=0.0000  <S**2>=2.000
      90 -> 91         0.77774
      90 <- 91         0.34812
 This state for optimization and/or second-order correction.
 Total Energy, E(TD-HF/TD-DFT) =  -1250.77714731
 Copying the excited state density for this state as the 1-particle RhoCI density.

 Excited State   2:      Triplet-A      2.4214 eV  512.03 nm  f=0.0000  <S**2>=2.000
      89 -> 91         0.68705
      90 -> 94         0.11280

 Excited State   3:      Singlet-A      2.6926 eV  460.47 nm  f=0.7653  <S**2>=0.000
      89 -> 91         0.26953
      90 -> 91         0.65364
      90 <- 91        -0.13591

 Excited State   4:      Triplet-A      3.0358 eV  408.40 nm  f=0.0000  <S**2>=2.000
      86 -> 91         0.18921
      87 -> 91         0.60672
      90 -> 92        -0.27604

 Excited State   5:      Singlet-A      3.1263 eV  396.59 nm  f=0.4241  <S**2>=0.000
      89 -> 91         0.64601
      90 -> 91        -0.28438

 Excited State   6:      Singlet-A      3.4775 eV  356.53 nm  f=0.0001  <S**2>=0.000
      88 -> 91         0.69833

 The electronic state is 1-A.
 Alpha  occ. eigenvalues --  -66.15056 -19.21292 -14.35243 -14.34353 -10.28937
 Alpha  occ. eigenvalues --  -10.27303 -10.25870 -10.25421 -10.25419 -10.24793
 Alpha  occ. eigenvalues --  -10.24253 -10.24006 -10.23008 -10.22908 -10.22022
 Alpha  occ. eigenvalues --  -10.21741 -10.21726 -10.20435 -10.19965 -10.19508
 Alpha  occ. eigenvalues --  -10.18831 -10.17933 -10.17651 -10.17637  -5.29339
 Alpha  occ. eigenvalues --   -3.65354  -3.65162  -3.65153  -1.10067  -0.92202
 Alpha  occ. eigenvalues --   -0.91467  -0.89626  -0.86006  -0.82770  -0.79959
 Alpha  occ. eigenvalues --   -0.78955  -0.76623  -0.74209  -0.72698  -0.72398
 Alpha  occ. eigenvalues --   -0.70264  -0.69266  -0.69069  -0.65502  -0.64522
 Alpha  occ. eigenvalues --   -0.61679  -0.59900  -0.57901  -0.56426  -0.54162
 Alpha  occ. eigenvalues --   -0.52847  -0.51479  -0.49568  -0.49334  -0.48337
 Alpha  occ. eigenvalues --   -0.46977  -0.46074  -0.44921  -0.44040  -0.43379
 Alpha  occ. eigenvalues --   -0.42930  -0.42742  -0.42508  -0.42135  -0.41923
 Alpha  occ. eigenvalues --   -0.40604  -0.40578  -0.40359  -0.39371  -0.39169
 Alpha  occ. eigenvalues --   -0.38541  -0.37940  -0.37593  -0.37250  -0.36904
 Alpha  occ. eigenvalues --   -0.36634  -0.36420  -0.35579  -0.35375  -0.35139
 Alpha  occ. eigenvalues --   -0.34255  -0.33700  -0.33080  -0.32969  -0.32442
 Alpha  occ. eigenvalues --   -0.31815  -0.29347  -0.28831  -0.26660  -0.22139
 Alpha virt. eigenvalues --   -0.13028  -0.03417  -0.02012  -0.01832  -0.01666
 Alpha virt. eigenvalues --   -0.00677   0.00277   0.00706   0.00886   0.01118
 Alpha virt. eigenvalues --    0.01614   0.01772   0.01959   0.02455   0.02649

 Mulliken charges:
               1
     1  C   -0.699317
     2  C   -0.123165
     3  C   -0.336981
     4  C   -0.288508
     5  C    0.343884
     6  C    0.131662
     7  N   -0.531151
     8  C    0.670814
     9  C   -0.560017
    10  C   -0.221839
    11  O   -0.329740
    12  C   -0.115219
    13  C    0.374031
    14  C    0.609357
    15  C    0.739907
    16  C   -0.779125
    17  Si   1.197883
    18  C   -0.688132
    19  C   -0.667718
    20  C   -0.667118
    21  C   -0.261370
    22  N   -0.532351
    23  C   -0.391735
    24  C   -0.584917
    25  H    0.148084
    26  H    0.150538
    27  H    0.146824
    28  H    0.135703
    29  H    0.141595
    30  H    0.153526
    31  H    0.142418
    32  H    0.129499
    33  H    0.162229
    34  H    0.145569
    35  H    0.153859
    36  H    0.153817
    37  H    0.166038
    38  H    0.165772
    39  H    0.166127
    40  H    0.166677
    41  H    0.162839
    42  H    0.173600
    43  H    0.167325
    44  H    0.173355
    45  H    0.167050
    46  H    0.162932
    47  H    0.153438
    48  H    0.122051
 Sum of Mulliken charges =  -0.00000

 Dipole moment (field-independent basis, Debye):
    X=             -0.3111    Y=             -5.7044    Z=             -0.7199  Tot=              5.7581
 Quadrupole moment (field-independent basis, Debye-Ang):
   XX=           -167.9560   YY=           -154.1641   ZZ=           -154.8525
   XY=              5.4707   XZ=              3.5122   YZ=              0.2448

 Normal termination of Gaussian 16 at Wed Sep 10 15:01:58 2025.
