 Gaussian 16, Revision C.02,
 Gaussian 16:  ES64L-G16RevC.02  7-Dec-2021

 ----------------------------------------------------------
 # td=(50-50,nstates=3) b3lyp/6-31+g(d,p) geom=connectivity
 ----------------------------------------------------------

 -------------------
 Title Card Required
 -------------------
 Symbolic Z-matrix:
 Charge =  0 Multiplicity = 1

                         Standard orientation:
 ---------------------------------------------------------------------
 Center     Atomic      Atomic             Coordinates (Angstroms)
 Number     Number       Type             X           Y           Z
 ---------------------------------------------------------------------
      1          6           0       -4.330285    0.290237    0.837028
      2          6           0       -3.814754   -0.364034   -0.220968
      3          6           0       -4.034238    0.146088   -1.551640
      4          7           0       -4.205491    0.571414   -2.620414
      5          6           0       -3.014115   -1.594686   -0.104859
      6          6           0       -1.987979   -1.933671    0.698626
      7          6           0       -1.312689   -1.107499    1.764416
      8          6           0       -1.633786   -1.643567    3.177190
      9          6           0        0.217541   -1.038897    1.567149
     10          6           0        0.667894   -0.356610    0.240604
     11          6           0        0.259388    1.057719    0.178080
     12          6           0       -0.085005    2.226021    0.122557
     13         14           0       -0.548478    4.009667   -0.022862
     14          6           0       -0.021196    4.621030   -1.728699
     15          6           0       -2.420367    4.164392    0.185681
     16          6           0        0.345676    4.969603    1.336871
     17          6           0        2.120667   -0.503797    0.051175
     18          6           0        3.321895   -0.651519   -0.095643
     19         14           0        5.143165   -0.841387   -0.341972
     20          6           0        5.585295   -0.179630   -2.054460
     21          6           0        6.033318    0.145717    1.000503
     22          6           0        5.576521   -2.675707   -0.208747
     23          6           0       -1.597663   -3.345740    0.331652
     24          6           0       -2.553167   -3.694110   -0.801485
     25          8           0       -2.654679   -4.704278   -1.441344
     26          8           0       -3.372214   -2.599389   -1.013981
     27          1           0       -4.213013   -0.097714    1.842236
     28          1           0       -4.880090    1.215818    0.709172
     29          1           0       -1.701015   -0.085299    1.693129
     30          1           0       -1.189429   -0.997012    3.941044
     31          1           0       -2.713787   -1.684259    3.351663
     32          1           0       -1.233969   -2.653479    3.323339
     33          1           0        0.659968   -0.486507    2.402324
     34          1           0        0.649191   -2.046051    1.591187
     35          1           0        0.170087   -0.877542   -0.592367
     36          1           0       -0.271862    5.680911   -1.855700
     37          1           0        1.059025    4.509423   -1.871358
     38          1           0       -0.524403    4.057431   -2.521537
     39          1           0       -2.733587    5.211996    0.104224
     40          1           0       -2.741764    3.794130    1.165615
     41          1           0       -2.950157    3.595057   -0.585661
     42          1           0        1.432093    4.864953    1.244219
     43          1           0        0.103363    6.037569    1.281470
     44          1           0        0.058534    4.610103    2.331104
     45          1           0        6.662290   -0.269709   -2.239675
     46          1           0        5.060194   -0.733651   -2.840020
     47          1           0        5.312987    0.876861   -2.151445
     48          1           0        7.120791    0.063516    0.886500
     49          1           0        5.770565   -0.218655    1.999603
     50          1           0        5.768026    1.207301    0.950692
     51          1           0        5.047809   -3.263167   -0.967271
     52          1           0        6.652395   -2.831583   -0.351901
     53          1           0        5.306683   -3.076298    0.774545
     54          1           0       -0.564337   -3.450610   -0.019554
     55          1           0       -1.726333   -4.068064    1.147426
 ---------------------------------------------------------------------

 SCF Done:  E(RB3LYP) =  -1601.90640448     A.U. after   16 cycles

 Excitation energies and oscillator strengths:

 Excited State   1:      Triplet-A      2.7409 eV  452.35 nm  f=0.0000  <S**2>=2.000
      97 ->104         0.27024
     101 ->104         0.23149
     103 ->104         0.56899
 This state for optimization and/or second-order correction.
 Total Energy, E(TD-HF/TD-DFT) =  -1601.80567758
 Copying the excited state density for this state as the 1-particle RhoCI density.

 Excited State   2:      Triplet-A      3.6571 eV  339.03 nm  f=0.0000  <S**2>=2.000
      97 ->104         0.49928
      98 ->104         0.21711
     101 ->105        -0.12400
     103 ->104        -0.17983
     103 ->105        -0.29734

 Excited State   3:      Singlet-A      4.0594 eV  305.42 nm  f=0.0691  <S**2>=0.000
     103 ->104         0.69002

 Excited State   4:      Triplet-A      4.3378 eV  285.82 nm  f=0.0000  <S**2>=2.000
     100 ->104         0.10044
     101 ->104         0.60826
     103 ->104        -0.28826
     103 ->105         0.10715

 Excited State   5:      Singlet-A      4.3721 eV  283.58 nm  f=0.0012  <S**2>=0.000
      99 ->104         0.14713
     102 ->104         0.68386

 Excited State   6:      Singlet-A      4.3889 eV  282.49 nm  f=0.0043  <S**2>=0.000
     100 ->104         0.13979
     101 ->104         0.68012

 The electronic state is 1-A.
 Alpha  occ. eigenvalues --  -66.14267 -66.14208 -19.23033 -19.16897 -14.35817
 Alpha  occ. eigenvalues --  -10.34513 -10.28907 -10.27563 -10.25826 -10.24939
 Alpha  occ. eigenvalues --  -10.24598 -10.23885 -10.23484 -10.23186 -10.22070
 Alpha  occ. eigenvalues --  -10.20905 -10.20324 -10.20285 -10.17656 -10.17567
 Alpha  occ. eigenvalues --  -10.17282 -10.17186 -10.17165 -10.17118 -10.17010
 Alpha  occ. eigenvalues --  -10.16912  -5.28543  -5.28490  -3.64541  -3.64486
 Alpha  occ. eigenvalues --   -3.64378  -3.64368  -3.64322  -3.64318  -1.13877
 Alpha  occ. eigenvalues --   -1.05928  -0.92540  -0.87720  -0.85458  -0.83650
 Alpha  occ. eigenvalues --   -0.79479  -0.74972  -0.74851  -0.73302  -0.71798
 Alpha  occ. eigenvalues --   -0.71598  -0.68759  -0.68673  -0.68574  -0.68485
 Alpha  occ. eigenvalues --   -0.68455  -0.67538  -0.64281  -0.61363  -0.58318
 Alpha  occ. eigenvalues --   -0.56193  -0.54264  -0.52461  -0.51456  -0.50151
 Alpha  occ. eigenvalues --   -0.50046  -0.49136  -0.48148  -0.47487  -0.46514
 Alpha  occ. eigenvalues --   -0.44765  -0.43375  -0.43245  -0.42748  -0.42615
 Alpha  occ. eigenvalues --   -0.42396  -0.41582  -0.41454  -0.41364  -0.41353
 Alpha  occ. eigenvalues --   -0.41334  -0.40606  -0.40037  -0.39900  -0.39840
 Alpha  occ. eigenvalues --   -0.39790  -0.39728  -0.38814  -0.38760  -0.38752
 Alpha  occ. eigenvalues --   -0.37825  -0.37418  -0.37122  -0.36534  -0.35836
 Alpha  occ. eigenvalues --   -0.35609  -0.34993  -0.31948  -0.31923  -0.31790
 Alpha  occ. eigenvalues --   -0.31691  -0.31042  -0.29870  -0.28323  -0.27981
 Alpha  occ. eigenvalues --   -0.26896  -0.26753  -0.25777
 Alpha virt. eigenvalues --   -0.08728  -0.03742  -0.02239  -0.01367  -0.01141
 Alpha virt. eigenvalues --   -0.01017  -0.00633  -0.00350   0.00495   0.00710
 Alpha virt. eigenvalues --    0.00966   0.01362   0.01501   0.01696   0.02061

 Mulliken charges:
               1
     1  C   -0.326171
     2  C    0.546609
     3  C   -0.100565
     4  N   -0.428607
     5  C    0.375142
     6  C   -0.357207
     7  C    0.246594
     8  C   -0.521586
     9  C   -0.963089
    10  C    0.363126
    11  C   -0.585294
    12  C   -1.104574
    13  Si   1.329688
    14  C   -0.666188
    15  C   -0.729473
    16  C   -0.664204
    17  C    0.708790
    18  C   -0.639030
    19  Si   1.259211
    20  C   -0.680976
    21  C   -0.690278
    22  C   -0.690382
    23  C   -0.247947
    24  C    0.496320
    25  O   -0.460509
    26  O   -0.244692
    27  H    0.155245
    28  H    0.167480
    29  H    0.145900
    30  H    0.154018
    31  H    0.146719
    32  H    0.152756
    33  H    0.156250
    34  H    0.154813
    35  H    0.181415
    36  H    0.160670
    37  H    0.166312
    38  H    0.172681
    39  H    0.165429
    40  H    0.156210
    41  H    0.173732
    42  H    0.167380
    43  H    0.161301
    44  H    0.161539
    45  H    0.161085
    46  H    0.166843
    47  H    0.167503
    48  H    0.161454
    49  H    0.163548
    50  H    0.166814
    51  H    0.166088
    52  H    0.161814
    53  H    0.163433
    54  H    0.199092
    55  H    0.197772
 Sum of Mulliken charges =  -0.00000

 Dipole moment (field-independent basis, Debye):
    X=              2.4728    Y=              1.8000    Z=              6.6868  Tot=              7.3531
 Quadrupole moment (field-independent basis, Debye-Ang):
   XX=           -175.8580   YY=           -181.2084   ZZ=           -183.1377
   XY=            -12.4350   XZ=            -25.8447   YZ=            -10.8084

 Normal termination of Gaussian 16 at Wed Aug 27 07:57:21 2025.
