 Gaussian 16, Revision C.02,
 Gaussian 16:  ES64L-G16RevC.02  7-Dec-2021

 ----------------------------------------------------------
 # td=(50-50,nstates=3) b3lyp/6-31+g(d,p) geom=connectivity
 ----------------------------------------------------------

 -------------------
 Title Card Required
 -------------------
 Symbolic Z-matrix:
 Charge =  0 Multiplicity = 1

                         Standard orientation:
 ---------------------------------------------------------------------
 Center     Atomic      Atomic             Coordinates (Angstroms)
 Number     Number       Type             X           Y           Z
 ---------------------------------------------------------------------
      1          6           0       -1.931623    3.979763   -1.207067
      2          6           0       -2.323690    2.556291   -1.454906
      3          6           0       -1.954728    1.399210   -0.834559
      4          6           0       -2.907081    0.297257   -1.038240
      5          6           0       -3.151917   -0.675644   -0.129372
      6          6           0       -4.206410   -1.776291   -0.318116
      7          6           0       -4.826840   -1.729348   -1.728733
      8          6           0       -3.544323   -3.165276   -0.134294
      9          6           0       -5.347490   -1.602747    0.715935
     10          6           0       -2.393949   -0.593244    1.141287
     11          8           0       -2.642528   -1.283074    2.128452
     12          6           0       -1.209063    0.331968    1.174970
     13          8           0       -0.461896    0.092628    2.287135
     14          6           0       -0.874356    1.186010    0.158867
     15          6           0        0.582578    1.724569   -0.000087
     16          6           0        0.837405    2.351773   -1.391624
     17          6           0        0.927962    2.792136    1.070435
     18          6           0        1.522221    0.457871    0.053234
     19          6           0        3.055634    0.696048    0.235496
     20          6           0        3.384680    0.994794    1.640077
     21          7           0        3.621475    1.216004    2.755887
     22          6           0        3.856615   -0.510287   -0.260105
     23          6           0        4.482559   -0.457599   -1.511578
     24          6           0        5.172459   -1.566601   -2.008390
     25          6           0        5.244907   -2.740461   -1.254985
     26          6           0        4.626395   -2.797624   -0.002816
     27          6           0        3.937000   -1.689164    0.492884
     28          1           0       -2.842168    4.557839   -1.001281
     29          1           0       -1.262021    4.108296   -0.357220
     30          1           0       -1.474155    4.440672   -2.092685
     31          1           0       -3.144161    2.456240   -2.165505
     32          1           0       -3.513334    0.367107   -1.935655
     33          1           0       -5.538204   -2.554579   -1.837035
     34          1           0       -5.379109   -0.799779   -1.907626
     35          1           0       -4.070000   -1.839639   -2.513993
     36          1           0       -4.291777   -3.953362   -0.282091
     37          1           0       -3.122187   -3.275441    0.865936
     38          1           0       -2.746337   -3.317536   -0.870437
     39          1           0       -5.841006   -0.631949    0.590506
     40          1           0       -6.101736   -2.384853    0.568785
     41          1           0       -4.970378   -1.672308    1.737253
     42          1           0        0.185808    0.794830    2.425067
     43          1           0        1.913502    2.489358   -1.538243
     44          1           0        0.471600    1.707076   -2.195093
     45          1           0        0.384803    3.334034   -1.506305
     46          1           0        1.918741    3.222528    0.893635
     47          1           0        0.936942    2.419872    2.099787
     48          1           0        0.204649    3.610832    1.036424
     49          1           0        1.213754   -0.248152    0.824263
     50          1           0        1.399153   -0.065020   -0.900093
     51          1           0        3.369966    1.566455   -0.351665
     52          1           0        4.434645    0.454506   -2.101703
     53          1           0        5.656391   -1.509396   -2.979057
     54          1           0        5.783527   -3.602338   -1.637485
     55          1           0        4.683542   -3.703949    0.592692
     56          1           0        3.470951   -1.740227    1.473031
 ---------------------------------------------------------------------

 SCF Done:  E(RB3LYP) =  -1137.22938730     A.U. after   17 cycles

 Excitation energies and oscillator strengths:

 Excited State   1:      Triplet-A      1.8982 eV  653.18 nm  f=0.0000  <S**2>=2.000
      97 -> 99         0.14134
      98 -> 99         0.68448
      98 <- 99         0.13582
 This state for optimization and/or second-order correction.
 Total Energy, E(TD-HF/TD-DFT) =  -1137.15963088
 Copying the excited state density for this state as the 1-particle RhoCI density.

 Excited State   2:      Triplet-A      2.5676 eV  482.88 nm  f=0.0000  <S**2>=2.000
      97 -> 99         0.67112
      98 -> 99        -0.13361

 Excited State   3:      Triplet-A      2.7823 eV  445.62 nm  f=0.0000  <S**2>=2.000
      96 -> 99         0.66969
      98 ->103        -0.10538

 Excited State   4:      Singlet-A      3.0243 eV  409.96 nm  f=0.0061  <S**2>=0.000
      96 -> 99        -0.31805
      97 -> 99         0.53150
      98 -> 99        -0.32349

 Excited State   5:      Singlet-A      3.5498 eV  349.27 nm  f=0.0320  <S**2>=0.000
      96 -> 99         0.59033
      97 -> 99         0.15576
      98 -> 99        -0.34089

 Excited State   6:      Singlet-A      3.9515 eV  313.76 nm  f=0.2720  <S**2>=0.000
      96 -> 99         0.18867
      97 -> 99         0.42519
      98 -> 99         0.51079

 The electronic state is 1-A.
 Alpha  occ. eigenvalues --  -19.19731 -19.13579 -14.34959 -10.27441 -10.26589
 Alpha  occ. eigenvalues --  -10.25847 -10.24301 -10.24163 -10.22796 -10.22712
 Alpha  occ. eigenvalues --  -10.22613 -10.22082 -10.21659 -10.21390 -10.21347
 Alpha  occ. eigenvalues --  -10.21176 -10.21073 -10.21046 -10.20989 -10.20955
 Alpha  occ. eigenvalues --  -10.20884 -10.20520 -10.20449 -10.19794 -10.17927
 Alpha  occ. eigenvalues --  -10.16813 -10.16737  -1.08141  -1.02929  -0.92122
 Alpha  occ. eigenvalues --   -0.88305  -0.87609  -0.84869  -0.82552  -0.80976
 Alpha  occ. eigenvalues --   -0.79077  -0.76498  -0.75202  -0.74339  -0.72627
 Alpha  occ. eigenvalues --   -0.71472  -0.68924  -0.68684  -0.67869  -0.65509
 Alpha  occ. eigenvalues --   -0.62830  -0.62064  -0.61387  -0.59968  -0.57091
 Alpha  occ. eigenvalues --   -0.56223  -0.54275  -0.52905  -0.51556  -0.49828
 Alpha  occ. eigenvalues --   -0.49440  -0.48391  -0.48171  -0.46873  -0.46606
 Alpha  occ. eigenvalues --   -0.45972  -0.45112  -0.44661  -0.44070  -0.43919
 Alpha  occ. eigenvalues --   -0.43733  -0.43626  -0.43200  -0.42942  -0.41985
 Alpha  occ. eigenvalues --   -0.41059  -0.40706  -0.40109  -0.39487  -0.39096
 Alpha  occ. eigenvalues --   -0.38728  -0.38169  -0.38048  -0.37882  -0.37524
 Alpha  occ. eigenvalues --   -0.36848  -0.36717  -0.36406  -0.36294  -0.35767
 Alpha  occ. eigenvalues --   -0.35636  -0.34484  -0.33990  -0.33590  -0.33288
 Alpha  occ. eigenvalues --   -0.32908  -0.32685  -0.32089  -0.27137  -0.26739
 Alpha  occ. eigenvalues --   -0.25287  -0.24637  -0.22918
 Alpha virt. eigenvalues --   -0.08824  -0.03285  -0.03017  -0.01756  -0.01136
 Alpha virt. eigenvalues --   -0.00586   0.00164   0.00225   0.00928   0.01069
 Alpha virt. eigenvalues --    0.01155   0.01863   0.02010   0.02367   0.02433

 Mulliken charges:
               1
     1  C   -0.696207
     2  C   -0.217727
     3  C    0.156033
     4  C   -0.305171
     5  C    0.702591
     6  C    0.516370
     7  C   -0.509017
     8  C   -0.565261
     9  C   -0.534841
    10  C   -0.239455
    11  O   -0.429337
    12  C    0.355100
    13  O   -0.405730
    14  C   -0.154764
    15  C    0.238910
    16  C   -0.442685
    17  C   -0.183439
    18  C   -1.406751
    19  C    0.904004
    20  C   -0.406162
    21  N   -0.348327
    22  C    0.152167
    23  C   -0.321971
    24  C   -0.283926
    25  C   -0.091342
    26  C    0.160486
    27  C   -0.159423
    28  H    0.166686
    29  H    0.155014
    30  H    0.166022
    31  H    0.130291
    32  H    0.122773
    33  H    0.150142
    34  H    0.142838
    35  H    0.149522
    36  H    0.139754
    37  H    0.183568
    38  H    0.140708
    39  H    0.138654
    40  H    0.139619
    41  H    0.186720
    42  H    0.368326
    43  H    0.131524
    44  H    0.166380
    45  H    0.149721
    46  H    0.165621
    47  H    0.136726
    48  H    0.146241
    49  H    0.186018
    50  H    0.166597
    51  H    0.151794
    52  H    0.109365
    53  H    0.129531
    54  H    0.128962
    55  H    0.133056
    56  H    0.133705
 Sum of Mulliken charges =  -0.00000

 Dipole moment (field-independent basis, Debye):
    X=              0.2892    Y=              2.8776    Z=             -7.0110  Tot=              7.5840
 Quadrupole moment (field-independent basis, Debye-Ang):
   XX=           -168.0311   YY=           -152.5028   ZZ=           -179.9516
   XY=            -13.4433   XZ=             -5.4175   YZ=             -2.2811

 Normal termination of Gaussian 16 at Wed Aug 27 08:05:08 2025.
