 Gaussian 16, Revision C.02,
 Gaussian 16:  ES64L-G16RevC.02  7-Dec-2021

 ----------------------------------------------------------
 # td=(50-50,nstates=3) b3lyp/6-31+g(d,p) geom=connectivity
 ----------------------------------------------------------

 -------------------
 Title Card Required
 -------------------
 Symbolic Z-matrix:
 Charge =  0 Multiplicity = 1

                         Standard orientation:
 ---------------------------------------------------------------------
 Center     Atomic      Atomic             Coordinates (Angstroms)
 Number     Number       Type             X           Y           Z
 ---------------------------------------------------------------------
      1          6           0        1.153005    3.262114    3.058341
      2          7           0        0.530170    2.693864    1.865929
      3          6           0        0.954409    1.341706    1.481635
      4          6           0       -0.211704    0.476629    1.075359
      5          6           0       -0.199385   -0.577648    0.221475
      6          6           0       -1.444989   -1.280352   -0.098169
      7          6           0       -1.721736   -2.528111   -0.601332
      8          6           0       -3.144535   -2.646127   -0.637552
      9          6           0       -3.672660   -1.472141   -0.159839
     10         14           0       -5.424587   -0.829909    0.102604
     11          6           0       -6.605275   -2.195926   -0.454559
     12          6           0       -5.675198   -0.434563    1.934210
     13          6           0       -5.675083    0.734757   -0.928198
     14          8           0       -2.620982   -0.632986    0.168966
     15          6           0        1.011475   -1.086918   -0.429773
     16          6           0        1.246469   -1.651027   -1.659166
     17          6           0        2.645361   -1.926711   -1.721697
     18          6           0        3.203323   -1.528114   -0.531729
     19         14           0        4.953136   -1.565988    0.169127
     20          6           0        6.068667   -2.293108   -1.170532
     21          6           0        5.488296    0.193505    0.605583
     22          6           0        4.978113   -2.645323    1.721133
     23          8           0        2.194324   -1.009310    0.261537
     24          7           0        0.300012    3.632265    0.912640
     25          6           0        0.122222    3.320292   -0.320586
     26          6           0       -0.201704    4.434508   -1.291859
     27          6           0        0.743613    4.494509   -2.415999
     28          7           0        1.490456    4.526687   -3.305110
     29          1           0        0.693116    4.231034    3.256010
     30          1           0        0.975147    2.601773    3.911483
     31          1           0        2.238685    3.406303    2.938180
     32          1           0        1.718757    1.391288    0.691696
     33          1           0        1.447277    0.907134    2.358958
     34          1           0       -1.158773    0.746471    1.533746
     35          1           0       -0.995463   -3.275544   -0.882824
     36          1           0       -3.711642   -3.502348   -0.976453
     37          1           0       -7.645618   -1.876836   -0.322258
     38          1           0       -6.467078   -2.441435   -1.513387
     39          1           0       -6.464552   -3.113354    0.127726
     40          1           0       -6.682288   -0.040275    2.114948
     41          1           0       -4.955586    0.317499    2.276201
     42          1           0       -5.545662   -1.327904    2.554970
     43          1           0       -4.955035    1.510210   -0.644341
     44          1           0       -5.544628    0.532080   -1.996880
     45          1           0       -6.682131    1.143118   -0.781826
     46          1           0        0.509481   -1.821082   -2.430085
     47          1           0        3.178873   -2.366027   -2.553400
     48          1           0        7.105053   -2.342023   -0.816836
     49          1           0        5.764053   -3.310028   -1.441828
     50          1           0        6.058067   -1.681431   -2.079398
     51          1           0        6.504795    0.200777    1.016693
     52          1           0        4.823064    0.634012    1.356513
     53          1           0        5.476188    0.844587   -0.275263
     54          1           0        4.282831   -2.264858    2.477626
     55          1           0        4.689473   -3.676983    1.491929
     56          1           0        5.979709   -2.665696    2.166913
     57          1           0        0.150825    2.303576   -0.712600
     58          1           0       -1.209011    4.306120   -1.712341
     59          1           0       -0.184923    5.389356   -0.756807
 ---------------------------------------------------------------------

 SCF Done:  E(RB3LYP) =  -1712.65420655     A.U. after   16 cycles

 Excitation energies and oscillator strengths:

 Excited State   1:      Triplet-A      2.2897 eV  541.48 nm  f=0.0000  <S**2>=2.000
     111 ->112         0.68114
     111 <-112         0.11210
 This state for optimization and/or second-order correction.
 Total Energy, E(TD-HF/TD-DFT) =  -1712.57006027
 Copying the excited state density for this state as the 1-particle RhoCI density.

 Excited State   2:      Triplet-A      3.1795 eV  389.95 nm  f=0.0000  <S**2>=2.000
     109 ->112         0.52389
     110 ->112        -0.15913
     111 ->113        -0.28083
     111 ->114        -0.26419

 Excited State   3:      Triplet-A      3.3717 eV  367.72 nm  f=0.0000  <S**2>=2.000
     110 ->112         0.15233
     110 ->113         0.25528
     110 ->114        -0.34511
     110 ->115         0.41373
     110 ->116         0.23221

 Excited State   4:      Singlet-A      3.8441 eV  322.53 nm  f=0.0078  <S**2>=0.000
     110 ->112         0.70088

 Excited State   5:      Singlet-A      3.9607 eV  313.04 nm  f=0.1895  <S**2>=0.000
     111 ->112         0.69298

 Excited State   6:      Singlet-A      4.2525 eV  291.55 nm  f=0.2050  <S**2>=0.000
     109 ->112         0.67458
     111 ->113         0.15303
     111 ->114         0.10633

 The electronic state is 1-A.
 Alpha  occ. eigenvalues --  -66.13736 -66.13609 -19.22460 -19.22059 -14.38835
 Alpha  occ. eigenvalues --  -14.37884 -14.33778 -10.25646 -10.25455 -10.24018
 Alpha  occ. eigenvalues --  -10.23527 -10.23213 -10.23114 -10.22959 -10.22772
 Alpha  occ. eigenvalues --  -10.22558 -10.22093 -10.20594 -10.19875 -10.19789
 Alpha  occ. eigenvalues --  -10.19638 -10.19593 -10.17363 -10.17332 -10.17109
 Alpha  occ. eigenvalues --  -10.17098 -10.16984 -10.16984  -5.28108  -5.27983
 Alpha  occ. eigenvalues --   -3.64061  -3.63961  -3.63940  -3.63934  -3.63838
 Alpha  occ. eigenvalues --   -3.63815  -1.11233  -1.10950  -1.02072  -0.90623
 Alpha  occ. eigenvalues --   -0.86559  -0.84001  -0.80768  -0.80278  -0.78077
 Alpha  occ. eigenvalues --   -0.76018  -0.75073  -0.72412  -0.71679  -0.69831
 Alpha  occ. eigenvalues --   -0.68773  -0.68705  -0.68533  -0.68409  -0.67161
 Alpha  occ. eigenvalues --   -0.62063  -0.60739  -0.60169  -0.56893  -0.56383
 Alpha  occ. eigenvalues --   -0.55457  -0.54562  -0.53144  -0.51151  -0.50752
 Alpha  occ. eigenvalues --   -0.49305  -0.48222  -0.47202  -0.46118  -0.45630
 Alpha  occ. eigenvalues --   -0.45352  -0.44687  -0.43681  -0.42885  -0.42568
 Alpha  occ. eigenvalues --   -0.42367  -0.42144  -0.41872  -0.41650  -0.41538
 Alpha  occ. eigenvalues --   -0.41513  -0.41271  -0.41111  -0.40668  -0.39933
 Alpha  occ. eigenvalues --   -0.39775  -0.39724  -0.39622  -0.39395  -0.38889
 Alpha  occ. eigenvalues --   -0.38794  -0.38501  -0.37816  -0.37456  -0.36477
 Alpha  occ. eigenvalues --   -0.35478  -0.33181  -0.33031  -0.32873  -0.32656
 Alpha  occ. eigenvalues --   -0.31986  -0.31274  -0.31237  -0.31133  -0.30787
 Alpha  occ. eigenvalues --   -0.28950  -0.28652  -0.28186  -0.23629  -0.22525
 Alpha  occ. eigenvalues --   -0.21054
 Alpha virt. eigenvalues --   -0.05678  -0.01794  -0.01542  -0.01255  -0.01199
 Alpha virt. eigenvalues --    0.00115   0.00464   0.00826   0.00901   0.01520
 Alpha virt. eigenvalues --    0.01835   0.02101   0.02318   0.02487   0.02883

 Mulliken charges:
               1
     1  C   -0.202806
     2  N    0.070915
     3  C   -0.548747
     4  C   -0.296917
     5  C    0.312556
     6  C    0.403961
     7  C   -0.593974
     8  C    0.016952
     9  C   -0.609905
    10  Si   1.300828
    11  C   -0.704676
    12  C   -0.675889
    13  C   -0.678007
    14  O   -0.247498
    15  C   -0.141287
    16  C   -0.410522
    17  C   -0.076380
    18  C   -0.384941
    19  Si   1.344740
    20  C   -0.700224
    21  C   -0.693838
    22  C   -0.661507
    23  O   -0.211892
    24  N   -0.006811
    25  C    0.012793
    26  C   -0.297190
    27  C    0.186615
    28  N   -0.501270
    29  H    0.165325
    30  H    0.143170
    31  H    0.137203
    32  H    0.170538
    33  H    0.159286
    34  H    0.153006
    35  H    0.143477
    36  H    0.132839
    37  H    0.163769
    38  H    0.167665
    39  H    0.167453
    40  H    0.160325
    41  H    0.168337
    42  H    0.163313
    43  H    0.168500
    44  H    0.163672
    45  H    0.160590
    46  H    0.145751
    47  H    0.135134
    48  H    0.164089
    49  H    0.167315
    50  H    0.170554
    51  H    0.161972
    52  H    0.162461
    53  H    0.169086
    54  H    0.167037
    55  H    0.163434
    56  H    0.160946
    57  H    0.145367
    58  H    0.191045
    59  H    0.202262
 Sum of Mulliken charges =  -0.00000

 Dipole moment (field-independent basis, Debye):
    X=             -1.4068    Y=             -3.2519    Z=              2.9415  Tot=              4.6051
 Quadrupole moment (field-independent basis, Debye-Ang):
   XX=           -166.7669   YY=           -193.9887   ZZ=           -194.2855
   XY=            -11.2982   XZ=             11.3096   YZ=             19.6069

 Normal termination of Gaussian 16 at Wed Sep 10 14:59:49 2025.
