 Gaussian 16, Revision C.02,
 Gaussian 16:  ES64L-G16RevC.02  7-Dec-2021

 ----------------------------------------------------------
 # td=(50-50,nstates=3) b3lyp/6-31+g(d,p) geom=connectivity
 ----------------------------------------------------------

 -------------------
 Title Card Required
 -------------------
 Symbolic Z-matrix:
 Charge =  0 Multiplicity = 1

                         Standard orientation:
 ---------------------------------------------------------------------
 Center     Atomic      Atomic             Coordinates (Angstroms)
 Number     Number       Type             X           Y           Z
 ---------------------------------------------------------------------
      1          6           0        1.546171    2.734270    1.118786
      2          6           0        0.839852    2.546887   -0.181479
      3          7           0        0.739597    1.425865   -0.843596
      4          8           0        0.104760    1.302933   -1.975064
      5          6           0        1.323254    0.178704   -0.359018
      6          6           0        2.632459   -0.128423   -0.718730
      7          6           0        3.202140   -1.323145   -0.274760
      8          6           0        2.468124   -2.189779    0.539749
      9          6           0        1.160707   -1.868759    0.902305
     10          6           0        0.560161   -0.689192    0.436127
     11          6           0       -0.855505   -0.409721    0.851619
     12          8           0       -1.209562   -0.471446    2.006437
     13          6           0       -1.898512   -0.145344   -0.295727
     14          6           0       -2.243180   -1.444448   -0.893681
     15          7           0       -2.472249   -2.484070   -1.355869
     16          6           0       -3.082627    0.563741    0.201491
     17          7           0       -3.995774    1.171828    0.577444
     18          1           0        2.355330    3.466573    1.004592
     19          1           0        0.852007    3.143208    1.862942
     20          1           0        1.969473    1.809310    1.512136
     21          1           0        0.351490    3.383577   -0.672531
     22          1           0        3.191094    0.564359   -1.339459
     23          1           0        4.219611   -1.571027   -0.559978
     24          1           0        2.912023   -3.115389    0.891606
     25          1           0        0.584162   -2.533264    1.537230
     26          1           0       -1.416069    0.456658   -1.093478
 ---------------------------------------------------------------------

 SCF Done:  E(RB3LYP) =  -777.304949169     A.U. after   16 cycles

 Excitation energies and oscillator strengths:

 Excited State   1:      Triplet-A      2.3784 eV  521.30 nm  f=0.0000  <S**2>=2.000
      59 -> 61         0.70884
      59 <- 61         0.16385
 This state for optimization and/or second-order correction.
 Total Energy, E(TD-HF/TD-DFT) =  -777.217546239
 Copying the excited state density for this state as the 1-particle RhoCI density.

 Excited State   2:      Triplet-A      3.3120 eV  374.35 nm  f=0.0000  <S**2>=2.000
      55 -> 60         0.15639
      55 -> 62        -0.10612
      56 -> 60         0.10426
      56 -> 63         0.14619
      57 -> 60         0.52185
      58 -> 60         0.28193
      58 -> 62        -0.11371
      59 -> 60        -0.19467

 Excited State   3:      Triplet-A      3.4112 eV  363.47 nm  f=0.0000  <S**2>=2.000
      55 -> 62        -0.10301
      56 -> 60        -0.17746
      58 -> 60         0.16255
      58 -> 62        -0.10742
      59 -> 60         0.61600

 Excited State   4:      Singlet-A      3.5204 eV  352.19 nm  f=0.0074  <S**2>=0.000
      59 -> 60         0.69951

 Excited State   5:      Singlet-A      3.9504 eV  313.85 nm  f=0.0163  <S**2>=0.000
      56 -> 60         0.26975
      57 -> 60         0.37129
      58 -> 60         0.51508

 Excited State   6:      Singlet-A      4.0662 eV  304.92 nm  f=0.0101  <S**2>=0.000
      56 -> 60        -0.24766
      57 -> 60        -0.42741
      58 -> 60         0.46851

 The electronic state is 1-A.
 Alpha  occ. eigenvalues --  -19.20549 -19.16158 -14.51256 -14.36849 -14.36369
 Alpha  occ. eigenvalues --  -10.34539 -10.29944 -10.28979 -10.28204 -10.26355
 Alpha  occ. eigenvalues --  -10.26108 -10.25736 -10.24781 -10.24729 -10.24613
 Alpha  occ. eigenvalues --  -10.24173 -10.23704  -1.13366  -1.10644  -0.94057
 Alpha  occ. eigenvalues --   -0.92805  -0.92653  -0.89613  -0.84905  -0.81652
 Alpha  occ. eigenvalues --   -0.81018  -0.76482  -0.70674  -0.68489  -0.63574
 Alpha  occ. eigenvalues --   -0.60618  -0.59965  -0.56015  -0.55069  -0.54421
 Alpha  occ. eigenvalues --   -0.52355  -0.52015  -0.50592  -0.48701  -0.47817
 Alpha  occ. eigenvalues --   -0.47540  -0.44803  -0.44782  -0.43610  -0.42886
 Alpha  occ. eigenvalues --   -0.41453  -0.40983  -0.40191  -0.39153  -0.38543
 Alpha  occ. eigenvalues --   -0.37251  -0.36329  -0.35294  -0.35057  -0.31677
 Alpha  occ. eigenvalues --   -0.31372  -0.30095  -0.27850  -0.26067
 Alpha virt. eigenvalues --   -0.10217  -0.07157  -0.06211  -0.04663  -0.02000
 Alpha virt. eigenvalues --   -0.01801  -0.00583   0.00150   0.00407   0.00784
 Alpha virt. eigenvalues --    0.01660   0.01744   0.02490   0.03426   0.03525

 Mulliken charges:
               1
     1  C   -0.431334
     2  C    0.100557
     3  N   -0.101375
     4  O   -0.170121
     5  C   -0.982668
     6  C   -0.183903
     7  C   -0.121870
     8  C   -0.082346
     9  C   -0.342585
    10  C    0.975986
    11  C    0.408078
    12  O   -0.295553
    13  C    0.517254
    14  C   -0.088765
    15  N   -0.406746
    16  C    0.028635
    17  N   -0.426395
    18  H    0.177778
    19  H    0.185879
    20  H    0.179481
    21  H    0.174585
    22  H    0.151595
    23  H    0.146504
    24  H    0.146561
    25  H    0.163034
    26  H    0.277734
 Sum of Mulliken charges =  -0.00000

 Dipole moment (field-independent basis, Debye):
    X=              8.9899    Y=              1.8095    Z=              1.8824  Tot=              9.3614
 Quadrupole moment (field-independent basis, Debye-Ang):
   XX=           -106.6495   YY=            -92.9401   ZZ=           -111.6240
   XY=             -1.1726   XZ=              2.5674   YZ=             -2.6102

 Normal termination of Gaussian 16 at Wed Aug 27 08:02:11 2025.
