 Gaussian 16, Revision C.02,
 Gaussian 16:  ES64L-G16RevC.02  7-Dec-2021

 ----------------------------------------------------------
 # td=(50-50,nstates=3) b3lyp/6-31+g(d,p) geom=connectivity
 ----------------------------------------------------------

 -------------------
 Title Card Required
 -------------------
 Symbolic Z-matrix:
 Charge =  0 Multiplicity = 1

                         Standard orientation:
 ---------------------------------------------------------------------
 Center     Atomic      Atomic             Coordinates (Angstroms)
 Number     Number       Type             X           Y           Z
 ---------------------------------------------------------------------
      1         17           0       -5.593114   -0.595374   -0.067696
      2          6           0       -3.860548   -0.320188   -0.031598
      3          6           0       -3.316931    0.742303   -0.755230
      4          6           0       -1.941090    0.961500   -0.720041
      5          6           0       -1.093211    0.124035    0.026031
      6          6           0        0.380009    0.305675    0.032741
      7          6           0        1.226303   -0.775798   -0.098409
      8          6           0        2.619240   -0.536660   -0.068430
      9          6           0        3.188197    0.761275    0.079633
     10          6           0        2.318374    1.882197    0.221703
     11          6           0        0.981635    1.617311    0.193614
     12          9           0        0.131803    2.658785    0.351460
     13          7           0        4.511921    0.720765    0.063818
     14          8           0        4.840322   -0.605390   -0.096882
     15          7           0        3.641163   -1.400016   -0.183113
     16          8           0        3.731166   -2.614659   -0.330321
     17          6           0       -1.669873   -0.935226    0.748152
     18          6           0       -3.045226   -1.162817    0.723973
     19          1           0       -3.961407    1.388360   -1.340940
     20          1           0       -1.526977    1.784482   -1.291578
     21          1           0        0.847395   -1.780373   -0.246383
     22          1           0        2.692841    2.889218    0.358250
     23          1           0       -1.040414   -1.578070    1.355923
     24          1           0       -3.479495   -1.977829    1.292271
 ---------------------------------------------------------------------

 SCF Done:  E(RB3LYP) =  -1280.76562329     A.U. after   18 cycles

 Excitation energies and oscillator strengths:

 Excited State   1:      Triplet-A      1.2854 eV  964.53 nm  f=0.0000  <S**2>=2.000
      66 -> 68         0.18986
      67 -> 68         0.69509
      67 <- 68         0.21198
 This state for optimization and/or second-order correction.
 Total Energy, E(TD-HF/TD-DFT) =  -1280.71838442
 Copying the excited state density for this state as the 1-particle RhoCI density.

 Excited State   2:      Triplet-A      2.9997 eV  413.32 nm  f=0.0000  <S**2>=2.000
      62 -> 68         0.20127
      65 -> 70         0.11808
      66 -> 68         0.54714
      66 -> 69        -0.10931
      67 -> 68        -0.17806
      67 -> 69         0.26927
      67 -> 71        -0.10242

 Excited State   3:      Singlet-A      3.1774 eV  390.21 nm  f=0.1246  <S**2>=0.000
      67 -> 68         0.69814

 Excited State   4:      Triplet-A      3.3157 eV  373.93 nm  f=0.0000  <S**2>=2.000
      62 -> 68         0.21712
      64 -> 68         0.55104
      66 -> 68        -0.13527
      66 -> 71        -0.11160
      67 -> 71        -0.29642

 Excited State   5:      Singlet-A      3.6694 eV  337.89 nm  f=0.1003  <S**2>=0.000
      66 -> 68         0.68856
      67 -> 69        -0.12592

 Excited State   6:      Singlet-A      4.0707 eV  304.58 nm  f=0.0011  <S**2>=0.000
      63 -> 68         0.27881
      65 -> 68         0.64037

 The electronic state is 1-A.
 Alpha  occ. eigenvalues -- -101.57035 -24.75887 -19.29822 -19.20939 -14.56709
 Alpha  occ. eigenvalues --  -14.42709 -10.32827 -10.28429 -10.27963 -10.27915
 Alpha  occ. eigenvalues --  -10.26201 -10.25514 -10.24562 -10.24224 -10.23142
 Alpha  occ. eigenvalues --  -10.23015 -10.22979 -10.22917  -9.48545  -7.24954
 Alpha  occ. eigenvalues --   -7.23982  -7.23944  -1.26638  -1.23842  -1.13766
 Alpha  occ. eigenvalues --   -0.94366  -0.91620  -0.90259  -0.88050  -0.85135
 Alpha  occ. eigenvalues --   -0.80950  -0.78570  -0.76584  -0.71144  -0.69012
 Alpha  occ. eigenvalues --   -0.65572  -0.63873  -0.62799  -0.59867  -0.56943
 Alpha  occ. eigenvalues --   -0.56209  -0.55765  -0.52957  -0.51814  -0.50798
 Alpha  occ. eigenvalues --   -0.50105  -0.49269  -0.48771  -0.47404  -0.45836
 Alpha  occ. eigenvalues --   -0.45718  -0.44032  -0.43341  -0.42145  -0.42084
 Alpha  occ. eigenvalues --   -0.40704  -0.39290  -0.38646  -0.38100  -0.36025
 Alpha  occ. eigenvalues --   -0.33188  -0.32777  -0.31563  -0.30738  -0.28957
 Alpha  occ. eigenvalues --   -0.27146  -0.24307
 Alpha virt. eigenvalues --   -0.11867  -0.05674  -0.04561  -0.03088  -0.01459
 Alpha virt. eigenvalues --   -0.01015   0.00206   0.00420   0.00610   0.01360
 Alpha virt. eigenvalues --    0.02457   0.02784   0.03179   0.03608   0.03701

 Mulliken charges:
               1
     1  Cl   0.261891
     2  C    0.107449
     3  C   -0.350308
     4  C    0.185048
     5  C   -0.163425
     6  C    1.712512
     7  C   -0.554498
     8  C    0.384533
     9  C   -0.665041
    10  C    0.399957
    11  C   -0.684523
    12  F   -0.328756
    13  N   -0.350126
    14  O    0.337476
    15  N   -0.673604
    16  O    0.034588
    17  C   -0.092313
    18  C   -0.466663
    19  H    0.150179
    20  H    0.136959
    21  H    0.166651
    22  H    0.170248
    23  H    0.131519
    24  H    0.150245
 Sum of Mulliken charges =  -0.00000

 Dipole moment (field-independent basis, Debye):
    X=             -2.5761    Y=              1.3844    Z=              0.1364  Tot=              2.9277
 Quadrupole moment (field-independent basis, Debye-Ang):
   XX=           -135.8483   YY=           -111.3085   ZZ=           -107.3371
   XY=              7.5370   XZ=              1.8414   YZ=             -5.2216

 Normal termination of Gaussian 16 at Tue Oct  7 11:49:50 2025.
