 Gaussian 16, Revision C.02,
 Gaussian 16:  ES64L-G16RevC.02  7-Dec-2021

 ----------------------------------------------------------
 # td=(50-50,nstates=3) b3lyp/6-31+g(d,p) geom=connectivity
 ----------------------------------------------------------

 -------------------
 Title Card Required
 -------------------
 Symbolic Z-matrix:
 Charge =  0 Multiplicity = 1

                         Standard orientation:
 ---------------------------------------------------------------------
 Center     Atomic      Atomic             Coordinates (Angstroms)
 Number     Number       Type             X           Y           Z
 ---------------------------------------------------------------------
      1          6           0       -4.661985   -0.106871    1.450927
      2          7           0       -3.948263    1.135373   -0.538274
      3          6           0       -3.189938    1.995082    0.356512
      4          6           0       -1.714750    1.571538    0.545166
      5          6           0       -0.910553    1.580705   -0.771178
      6          6           0        0.521923    1.134581   -0.584950
      7          6           0        1.526590    2.050332   -0.227782
      8          6           0        2.839366    1.639831   -0.018909
      9          6           0        3.194745    0.286952   -0.164728
     10          6           0        4.594689   -0.125535    0.060734
     11          7           0        5.556748    0.697063    0.231810
     12          6           0        6.821720    0.044447    0.548781
     13          6           0        6.787981   -1.430460    0.088866
     14         16           0        5.010705   -1.890443    0.147468
     15          6           0        2.199090   -0.632482   -0.526977
     16          6           0        0.884997   -0.211469   -0.732409
     17          7           0       -4.517663    0.066097   -0.022177
     18          6           0       -5.020934   -0.866146   -0.834810
     19          6           0       -5.928803   -1.992300   -0.419058
     20          6           0       -7.250703   -1.560718    0.081884
     21          7           0       -8.269044   -1.186920    0.498609
     22          1           0       -5.110337   -1.068868    1.676650
     23          1           0       -3.679928   -0.052695    1.918269
     24          1           0       -5.302979    0.686850    1.838125
     25          1           0       -3.652888    2.136513    1.344517
     26          1           0       -3.203158    2.980657   -0.123858
     27          1           0       -1.245486    2.254045    1.266791
     28          1           0       -1.662782    0.568306    0.989499
     29          1           0       -1.415782    0.934570   -1.496339
     30          1           0       -0.929632    2.595900   -1.187802
     31          1           0        1.273908    3.102197   -0.115624
     32          1           0        3.608250    2.353976    0.254938
     33          1           0        7.648003    0.585007    0.076042
     34          1           0        6.969772    0.109266    1.636779
     35          1           0        7.149076   -1.546330   -0.937091
     36          1           0        7.359946   -2.088173    0.746010
     37          1           0        2.451236   -1.679306   -0.666962
     38          1           0        0.131770   -0.939755   -1.023026
     39          1           0       -4.884797   -0.653070   -1.886616
     40          1           0       -6.098343   -2.614176   -1.304112
     41          1           0       -5.490183   -2.664051    0.332140
 ---------------------------------------------------------------------

 SCF Done:  E(RB3LYP) =  -1238.89452352     A.U. after   17 cycles

 Excitation energies and oscillator strengths:

 Excited State   1:      Triplet-A      1.2028 eV 1030.84 nm  f=0.0000  <S**2>=2.000
      80 -> 81         0.42068
      80 -> 82         0.62351
      80 <- 81         0.16150
      80 <- 82         0.24936
 This state for optimization and/or second-order correction.
 Total Energy, E(TD-HF/TD-DFT) =  -1238.85032311
 Copying the excited state density for this state as the 1-particle RhoCI density.

 Excited State   2:      Triplet-A      2.9986 eV  413.47 nm  f=0.0000  <S**2>=2.000
      77 -> 83        -0.14027
      78 -> 81         0.28564
      78 -> 82        -0.16301
      79 -> 81         0.48413
      79 -> 82        -0.28361
      80 -> 81         0.13350

 Excited State   3:      Singlet-A      3.5104 eV  353.19 nm  f=0.0716  <S**2>=0.000
      80 -> 81         0.65537
      80 -> 82        -0.26249

 Excited State   4:      Triplet-A      3.5106 eV  353.17 nm  f=0.0000  <S**2>=2.000
      79 -> 81        -0.19278
      79 -> 82         0.11297
      80 -> 81         0.54659
      80 -> 82        -0.36772

 Excited State   5:      Singlet-A      3.9891 eV  310.81 nm  f=0.2896  <S**2>=0.000
      80 -> 81         0.23555
      80 -> 82         0.60641
      80 -> 84         0.18833

 Excited State   6:      Singlet-A      4.1183 eV  301.06 nm  f=0.0471  <S**2>=0.000
      80 -> 82        -0.17970
      80 -> 83         0.27783
      80 -> 84         0.61087

 The electronic state is 1-A.
 Alpha  occ. eigenvalues --  -88.89092 -14.47593 -14.35143 -14.33962 -14.33512
 Alpha  occ. eigenvalues --  -10.26445 -10.26369 -10.25589 -10.24496 -10.23388
 Alpha  occ. eigenvalues --  -10.22970 -10.22915 -10.22030 -10.21281 -10.20999
 Alpha  occ. eigenvalues --  -10.20521 -10.20059 -10.19985 -10.19882 -10.19874
 Alpha  occ. eigenvalues --  -10.19431  -7.95139  -5.91619  -5.91277  -5.90668
 Alpha  occ. eigenvalues --   -1.05545  -0.95059  -0.91954  -0.87032  -0.86012
 Alpha  occ. eigenvalues --   -0.81148  -0.79632  -0.78666  -0.77417  -0.75520
 Alpha  occ. eigenvalues --   -0.75196  -0.72460  -0.68213  -0.63139  -0.62809
 Alpha  occ. eigenvalues --   -0.60460  -0.59844  -0.58677  -0.55451  -0.54470
 Alpha  occ. eigenvalues --   -0.52856  -0.51418  -0.50043  -0.49530  -0.49008
 Alpha  occ. eigenvalues --   -0.47900  -0.47054  -0.46394  -0.45625  -0.45164
 Alpha  occ. eigenvalues --   -0.43310  -0.42974  -0.42742  -0.42401  -0.41424
 Alpha  occ. eigenvalues --   -0.40695  -0.39912  -0.39528  -0.38137  -0.37887
 Alpha  occ. eigenvalues --   -0.37453  -0.36893  -0.35451  -0.34740  -0.34439
 Alpha  occ. eigenvalues --   -0.34210  -0.34054  -0.33708  -0.32881  -0.27046
 Alpha  occ. eigenvalues --   -0.27004  -0.26294  -0.24950  -0.23252  -0.19823
 Alpha virt. eigenvalues --   -0.05554  -0.04944  -0.02023  -0.01844  -0.00416
 Alpha virt. eigenvalues --   -0.00181   0.00386   0.00868   0.01243   0.01410
 Alpha virt. eigenvalues --    0.01980   0.02306   0.02634   0.03087   0.03341

 Mulliken charges:
               1
     1  C   -0.401543
     2  N   -0.105172
     3  C   -0.449117
     4  C   -0.127145
     5  C   -0.602844
     6  C    0.499233
     7  C   -0.092076
     8  C   -0.245095
     9  C    0.392503
    10  C   -0.095699
    11  N   -0.089920
    12  C   -0.173587
    13  C   -0.450286
    14  S    0.100663
    15  C   -0.586138
    16  C   -0.085501
    17  N    0.043964
    18  C   -0.211518
    19  C   -0.155738
    20  C    0.216585
    21  N   -0.478604
    22  H    0.159150
    23  H    0.176725
    24  H    0.196137
    25  H    0.114369
    26  H    0.146211
    27  H    0.141728
    28  H    0.123052
    29  H    0.159414
    30  H    0.139594
    31  H    0.117980
    32  H    0.153784
    33  H    0.148263
    34  H    0.154800
    35  H    0.188579
    36  H    0.178829
    37  H    0.131262
    38  H    0.118440
    39  H    0.161624
    40  H    0.197497
    41  H    0.189596
 Sum of Mulliken charges =  -0.00000

 Dipole moment (field-independent basis, Debye):
    X=              2.9639    Y=             -1.8798    Z=              1.3437  Tot=              3.7581
 Quadrupole moment (field-independent basis, Debye-Ang):
   XX=           -165.2222   YY=           -128.2380   ZZ=           -133.9516
   XY=              1.6337   XZ=              0.6053   YZ=              5.2191

 Normal termination of Gaussian 16 at Wed Aug 27 08:10:50 2025.
