 Gaussian 16, Revision C.02,
 Gaussian 16:  ES64L-G16RevC.02  7-Dec-2021

 -------------------------------------
 # b3lyp/6-31+g(d,p) geom=connectivity
 -------------------------------------

 -------------------
 Title Card Required
 -------------------
 Symbolic Z-matrix:
 Charge =  0 Multiplicity = 1

                         Standard orientation:
 ---------------------------------------------------------------------
 Center     Atomic      Atomic             Coordinates (Angstroms)
 Number     Number       Type             X           Y           Z
 ---------------------------------------------------------------------
      1          6           0       -5.651702   -4.871736   -1.341085
      2          7           0       -5.390609   -3.890619   -0.294337
      3          6           0       -6.237754   -3.930969    0.888443
      4          7           0       -4.928447   -2.717575   -0.763681
      5          6           0       -5.006016   -1.633871   -0.072575
      6          6           0       -4.381644   -0.394647   -0.651824
      7          6           0       -5.391381    0.692109   -0.769298
      8          7           0       -6.179829    1.540715   -0.857301
      9          8           0       -3.305265    0.013090    0.191993
     10          6           0       -2.509631    1.086225   -0.328883
     11         14           0       -1.046225    1.369430    0.864121
     12          6           0        0.036995   -0.111660    0.903619
     13          6           0        0.814058   -1.059946    0.900457
     14         14           0        1.918411   -2.539562    0.922700
     15          6           0        2.065216   -3.167134    2.691555
     16          6           0        1.208441   -3.848050   -0.229535
     17          6           0        3.575485   -2.015793    0.315271
     18          6           0        4.691853   -1.702555   -0.084260
     19         14           0        6.378322   -1.228848   -0.687019
     20          6           0        7.236950   -0.236473    0.671245
     21          6           0        7.337948   -2.811396   -1.063216
     22          6           0        6.178740   -0.184877   -2.248358
     23         14           0        0.336692    3.156332    0.152864
     24          6           0        1.683079    3.534062    1.418772
     25          6           0        1.034508    2.889627   -1.580175
     26          6           0       -0.778648    4.757095    0.045004
     27          9           0       -1.809753    4.618161   -0.844955
     28          9           0       -1.350978    5.087203    1.241048
     29          9           0       -0.077999    5.860189   -0.358159
     30          1           0       -4.888399   -4.759669   -2.111860
     31          1           0       -5.593340   -5.879217   -0.919789
     32          1           0       -6.642637   -4.735284   -1.801858
     33          1           0       -5.693927   -3.558564    1.762567
     34          1           0       -7.152268   -3.328283    0.760740
     35          1           0       -6.520137   -4.967379    1.079767
     36          1           0       -5.459874   -1.545363    0.914010
     37          1           0       -4.015751   -0.629290   -1.661559
     38          1           0       -3.103865    2.008067   -0.417318
     39          1           0       -2.136999    0.831888   -1.333859
     40          1           0        2.728526   -4.037990    2.735484
     41          1           0        2.473969   -2.393878    3.349371
     42          1           0        1.083356   -3.460889    3.078461
     43          1           0        1.849361   -4.736536   -0.241859
     44          1           0        1.131871   -3.468639   -1.253205
     45          1           0        0.207326   -4.147584    0.099049
     46          1           0        8.242422    0.064645    0.353988
     47          1           0        6.674122    0.671209    0.914276
     48          1           0        7.335177   -0.825632    1.589367
     49          1           0        8.346227   -2.576046   -1.424138
     50          1           0        6.834256   -3.405746   -1.833140
     51          1           0        7.437168   -3.435813   -0.168790
     52          1           0        5.605579    0.726016   -2.044701
     53          1           0        7.157589    0.113756   -2.642003
     54          1           0        5.655425   -0.742208   -3.032715
     55          1           0        2.296157    4.379520    1.087872
     56          1           0        1.255625    3.783065    2.395096
     57          1           0        2.338094    2.665743    1.546612
     58          1           0        1.671522    3.732011   -1.871281
     59          1           0        0.239119    2.793051   -2.326041
     60          1           0        1.639789    1.977391   -1.609281
     61          1           0       -1.572366    1.622297    2.228366
 ---------------------------------------------------------------------

 SCF Done:  E(RB3LYP) =  -2402.22603940     A.U. after   16 cycles

 The electronic state is 1-A.
 Alpha  occ. eigenvalues --  -66.16276 -66.15464 -66.15260 -66.14521 -24.73973
 Alpha  occ. eigenvalues --  -24.73931 -24.73929 -19.18490 -14.40233 -14.39059
 Alpha  occ. eigenvalues --  -14.34832 -10.41774 -10.29380 -10.24190 -10.23611
 Alpha  occ. eigenvalues --  -10.23570 -10.23455 -10.22971 -10.18812 -10.18795
 Alpha  occ. eigenvalues --  -10.18714 -10.18557 -10.18018 -10.17845 -10.17825
 Alpha  occ. eigenvalues --  -10.17784 -10.17443 -10.17420 -10.17414  -5.30431
 Alpha  occ. eigenvalues --   -5.30061  -5.29895  -5.28827  -3.66431  -3.66336
 Alpha  occ. eigenvalues --   -3.66216  -3.66045  -3.65885  -3.65831  -3.65822
 Alpha  occ. eigenvalues --   -3.65726  -3.65714  -3.64824  -3.64654  -3.64653
 Alpha  occ. eigenvalues --   -1.30232  -1.21944  -1.21917  -1.06114  -1.03400
 Alpha  occ. eigenvalues --   -0.91241  -0.86936  -0.78039  -0.75329  -0.74635
 Alpha  occ. eigenvalues --   -0.74264  -0.73164  -0.72198  -0.71195  -0.70090
 Alpha  occ. eigenvalues --   -0.69796  -0.69330  -0.69266  -0.68859  -0.68842
 Alpha  occ. eigenvalues --   -0.67262  -0.58981  -0.58182  -0.58121  -0.58056
 Alpha  occ. eigenvalues --   -0.57145  -0.55728  -0.54790  -0.53751  -0.51415
 Alpha  occ. eigenvalues --   -0.51023  -0.49813  -0.48999  -0.46650  -0.46606
 Alpha  occ. eigenvalues --   -0.46457  -0.46119  -0.44831  -0.44532  -0.43546
 Alpha  occ. eigenvalues --   -0.43262  -0.42990  -0.42530  -0.42508  -0.42305
 Alpha  occ. eigenvalues --   -0.42209  -0.42093  -0.41724  -0.41705  -0.41263
 Alpha  occ. eigenvalues --   -0.40974  -0.40794  -0.40633  -0.40532  -0.40497
 Alpha  occ. eigenvalues --   -0.40177  -0.40158  -0.40120  -0.39077  -0.38985
 Alpha  occ. eigenvalues --   -0.38002  -0.37491  -0.36866  -0.36316  -0.35032
 Alpha  occ. eigenvalues --   -0.34795  -0.34153  -0.33748  -0.33303  -0.32857
 Alpha  occ. eigenvalues --   -0.32515  -0.32126  -0.31983  -0.31270  -0.29776
 Alpha  occ. eigenvalues --   -0.29020  -0.28288  -0.28090  -0.27383  -0.26899
 Alpha  occ. eigenvalues --   -0.23371
 Alpha virt. eigenvalues --   -0.03664  -0.03470  -0.03191  -0.01811  -0.01163
 Alpha virt. eigenvalues --   -0.00693  -0.00590  -0.00376  -0.00091  -0.00019
 Alpha virt. eigenvalues --    0.00616   0.01003   0.01506   0.01713   0.02168

 Mulliken charges:
               1
     1  C   -0.327858
     2  N    0.078090
     3  C   -0.345840
     4  N   -0.064760
     5  C   -0.007782
     6  C   -0.225954
     7  C    0.313491
     8  N   -0.509942
     9  O   -0.170616
    10  C   -0.611344
    11  Si   0.978762
    12  C   -0.496998
    13  C   -0.520334
    14  Si   1.367538
    15  C   -0.655470
    16  C   -0.656762
    17  C   -0.594249
    18  C   -0.624293
    19  Si   1.201314
    20  C   -0.671309
    21  C   -0.675137
    22  C   -0.676582
    23  Si   0.627213
    24  C   -0.682816
    25  C   -0.695298
    26  C    0.521072
    27  F   -0.302223
    28  F   -0.296814
    29  F   -0.301319
    30  H    0.169158
    31  H    0.146815
    32  H    0.143800
    33  H    0.156151
    34  H    0.159107
    35  H    0.152397
    36  H    0.133265
    37  H    0.172932
    38  H    0.173826
    39  H    0.139784
    40  H    0.167463
    41  H    0.173395
    42  H    0.169212
    43  H    0.167522
    44  H    0.172304
    45  H    0.171016
    46  H    0.162269
    47  H    0.164985
    48  H    0.166525
    49  H    0.162028
    50  H    0.166303
    51  H    0.166230
    52  H    0.163804
    53  H    0.162600
    54  H    0.166455
    55  H    0.177467
    56  H    0.182145
    57  H    0.180360
    58  H    0.178525
    59  H    0.178879
    60  H    0.182645
    61  H   -0.103147
 Sum of Mulliken charges =  -0.00000

 Dipole moment (field-independent basis, Debye):
    X=              3.6426    Y=             -6.8537    Z=              0.2038  Tot=              7.7643
 Quadrupole moment (field-independent basis, Debye-Ang):
   XX=           -200.4966   YY=           -207.4710   ZZ=           -203.5914
   XY=             39.2629   XZ=             -8.4543   YZ=             -0.6906

 Normal termination of Gaussian 16 at Wed Aug 27 08:09:25 2025.
