 Gaussian 16, Revision C.02,
 Gaussian 16:  ES64L-G16RevC.02  7-Dec-2021

 ----------------------------------------------------------
 # td=(50-50,nstates=3) b3lyp/6-31+g(d,p) geom=connectivity
 ----------------------------------------------------------

 -------------------
 Title Card Required
 -------------------
 Symbolic Z-matrix:
 Charge =  0 Multiplicity = 1

                         Standard orientation:
 ---------------------------------------------------------------------
 Center     Atomic      Atomic             Coordinates (Angstroms)
 Number     Number       Type             X           Y           Z
 ---------------------------------------------------------------------
      1          6           0        0.341922    4.493977    0.435965
      2          8           0       -0.097728    3.145930    0.600428
      3          6           0       -0.824815    2.675213   -0.497719
      4          8           0       -1.360652    1.401919   -0.185663
      5          6           0       -0.561428    0.319509   -0.099422
      6          6           0        0.803867    0.356562   -0.100647
      7          6           0        1.577867   -0.850064   -0.023807
      8          6           0        2.970726   -0.814035   -0.044878
      9          6           0        3.759135   -1.999910    0.039136
     10          7           0        4.397756   -2.972183    0.107622
     11          6           0        3.682014    0.417390   -0.160238
     12          7           0        4.244103    1.433293   -0.259611
     13          6           0        0.874753   -2.111656    0.085228
     14          6           0       -0.478975   -2.150528    0.102933
     15          6           0       -1.283951   -0.949087    0.003050
     16          6           0       -2.669220   -1.040584    0.000677
     17          6           0       -3.594728    0.043421   -0.112423
     18          7           0       -4.439567    0.839718   -0.205927
     19          6           0       -3.304778   -2.319755    0.111008
     20          7           0       -3.824511   -3.358032    0.200144
     21          1           0        0.881180    4.754876    1.346615
     22          1           0        1.017107    4.592781   -0.425092
     23          1           0       -0.511908    5.173615    0.309930
     24          1           0       -1.701020    3.301083   -0.704603
     25          1           0       -0.189469    2.595536   -1.396082
     26          1           0        1.315313    1.309802   -0.118322
     27          1           0        1.447603   -3.029899    0.154151
     28          1           0       -0.990576   -3.102891    0.186506
 ---------------------------------------------------------------------

 SCF Done:  E(RB3LYP) =  -907.664593934     A.U. after   18 cycles

 Excitation energies and oscillator strengths:

 Excited State   1:      Triplet-A      0.6649 eV 1864.83 nm  f=0.0000  <S**2>=2.000
      68 -> 69         0.77466
      68 <- 69         0.34441
 This state for optimization and/or second-order correction.
 Total Energy, E(TD-HF/TD-DFT) =  -907.640160980
 Copying the excited state density for this state as the 1-particle RhoCI density.

 Excited State   2:      Triplet-A      2.1550 eV  575.34 nm  f=0.0000  <S**2>=2.000
      66 -> 69        -0.26584
      67 -> 69         0.63654

 Excited State   3:      Singlet-A      2.5797 eV  480.62 nm  f=0.2503  <S**2>=0.000
      66 -> 69        -0.11676
      67 -> 69         0.48294
      68 -> 69         0.50630
      68 <- 69        -0.10061

 Excited State   4:      Triplet-A      2.9661 eV  418.00 nm  f=0.0000  <S**2>=2.000
      65 -> 69         0.37643
      66 -> 69         0.52336
      67 -> 69         0.24754
      68 -> 70         0.12781

 Excited State   5:      Singlet-A      3.0150 eV  411.23 nm  f=0.2243  <S**2>=0.000
      66 -> 69         0.50435
      67 -> 69         0.40894
      68 -> 69        -0.28486

 Excited State   6:      Singlet-A      3.0536 eV  406.02 nm  f=0.5204  <S**2>=0.000
      66 -> 69         0.47844
      67 -> 69        -0.30647
      68 -> 69         0.42527
      68 <- 69        -0.11295

 The electronic state is 1-A.
 Alpha  occ. eigenvalues --  -19.25016 -19.20671 -14.38825 -14.38445 -14.38269
 Alpha  occ. eigenvalues --  -14.38088 -10.33930 -10.33060 -10.32057 -10.31022
 Alpha  occ. eigenvalues --  -10.29955 -10.29413 -10.27950 -10.27632 -10.27546
 Alpha  occ. eigenvalues --  -10.27477 -10.26821 -10.26596 -10.26408 -10.25366
 Alpha  occ. eigenvalues --   -1.15218  -1.07923  -0.96361  -0.95958  -0.94327
 Alpha  occ. eigenvalues --   -0.94307  -0.93211  -0.89145  -0.84249  -0.82676
 Alpha  occ. eigenvalues --   -0.78387  -0.75786  -0.71063  -0.69113  -0.66913
 Alpha  occ. eigenvalues --   -0.63966  -0.61010  -0.60093  -0.58325  -0.55245
 Alpha  occ. eigenvalues --   -0.55040  -0.54579  -0.51165  -0.49420  -0.48436
 Alpha  occ. eigenvalues --   -0.47770  -0.46539  -0.45590  -0.45179  -0.43153
 Alpha  occ. eigenvalues --   -0.42336  -0.41281  -0.40756  -0.40735  -0.40166
 Alpha  occ. eigenvalues --   -0.40075  -0.39532  -0.38335  -0.37998  -0.37971
 Alpha  occ. eigenvalues --   -0.37948  -0.37680  -0.36893  -0.36007  -0.34611
 Alpha  occ. eigenvalues --   -0.31133  -0.30576  -0.26824
 Alpha virt. eigenvalues --   -0.17811  -0.07058  -0.05889  -0.04102  -0.03666
 Alpha virt. eigenvalues --   -0.01881  -0.01086  -0.00140   0.00239   0.00394
 Alpha virt. eigenvalues --    0.00653   0.01120   0.01498   0.01866   0.02372

 Mulliken charges:
               1
     1  C   -0.210782
     2  O   -0.350749
     3  C    0.216431
     4  O   -0.350153
     5  C   -0.029845
     6  C   -0.223307
     7  C    1.017546
     8  C    0.554580
     9  C   -0.243491
    10  N   -0.471113
    11  C   -0.509784
    12  N   -0.469497
    13  C   -0.626800
    14  C   -0.567828
    15  C    0.624947
    16  C    1.682236
    17  C   -0.155415
    18  N   -0.485299
    19  C   -0.195198
    20  N   -0.452885
    21  H    0.165566
    22  H    0.142578
    23  H    0.140255
    24  H    0.146659
    25  H    0.131535
    26  H    0.175293
    27  H    0.171312
    28  H    0.173208
 Sum of Mulliken charges =  -0.00000

 Dipole moment (field-independent basis, Debye):
    X=              0.0433    Y=              3.6177    Z=             -1.0137  Tot=              3.7573
 Quadrupole moment (field-independent basis, Debye-Ang):
   XX=           -168.6677   YY=           -114.4809   ZZ=           -114.3975
   XY=             -0.6711   XZ=              1.3692   YZ=             -1.3628

 Normal termination of Gaussian 16 at Wed Aug 27 08:12:57 2025.
