 Gaussian 16, Revision C.02,
 Gaussian 16:  ES64L-G16RevC.02  7-Dec-2021

 ----------------------------------------------------------
 # td=(50-50,nstates=3) b3lyp/6-31+g(d,p) geom=connectivity
 ----------------------------------------------------------

 -------------------
 Title Card Required
 -------------------
 Symbolic Z-matrix:
 Charge =  0 Multiplicity = 1

                         Standard orientation:
 ---------------------------------------------------------------------
 Center     Atomic      Atomic             Coordinates (Angstroms)
 Number     Number       Type             X           Y           Z
 ---------------------------------------------------------------------
      1          6           0       -5.524796   -2.129066   -0.541170
      2          6           0       -4.042513   -1.764084   -0.577613
      3          7           0       -3.785100   -0.520893    0.152258
      4          6           0       -2.388210   -0.093196    0.116040
      5          6           0       -2.205247    1.195621    0.923679
      6          6           0       -0.755726    1.697745    1.031485
      7          7           0        0.178664    0.753033    1.656864
      8          6           0        1.174571    0.394923    0.776492
      9          6           0        2.199030   -0.546750    0.959553
     10          6           0        3.114386   -0.694156   -0.078972
     11         17           0        4.411021   -1.863704    0.114048
     12          6           0        3.057328    0.047827   -1.274315
     13          6           0        2.030322    0.971327   -1.441165
     14          6           0        1.090248    1.139763   -0.420772
     15          6           0       -0.101891    1.987285   -0.343689
     16          8           0       -0.542468    2.780482   -1.162726
     17          1           0       -5.703576   -3.073144   -1.066122
     18          1           0       -5.872843   -2.231921    0.491384
     19          1           0       -6.134252   -1.358940   -1.029745
     20          1           0       -3.698635   -1.710583   -1.628145
     21          1           0       -3.454939   -2.557714   -0.098073
     22          1           0       -4.374656    0.218063   -0.227711
     23          1           0       -1.784812   -0.899327    0.553051
     24          1           0       -2.016761    0.055048   -0.914452
     25          1           0       -2.782527    2.006586    0.461997
     26          1           0       -2.615221    1.046738    1.930394
     27          1           0       -0.759240    2.640955    1.593915
     28          1           0       -0.129126    0.123624    2.383636
     29          1           0        2.287848   -1.132572    1.867605
     30          1           0        3.804195   -0.111013   -2.042880
     31          1           0        1.946981    1.554894   -2.353030
 ---------------------------------------------------------------------

 SCF Done:  E(RB3LYP) =  -1111.28356210     A.U. after   15 cycles

 Excitation energies and oscillator strengths:

 Excited State   1:      Triplet-A      2.7726 eV  447.18 nm  f=0.0000  <S**2>=2.000
      60 -> 64        -0.11082
      62 -> 64         0.14827
      63 -> 64         0.67543
 This state for optimization and/or second-order correction.
 Total Energy, E(TD-HF/TD-DFT) =  -1111.18167159
 Copying the excited state density for this state as the 1-particle RhoCI density.

 Excited State   2:      Triplet-A      3.2823 eV  377.74 nm  f=0.0000  <S**2>=2.000
      60 -> 64         0.12259
      61 -> 64         0.66366
      61 -> 71        -0.11852

 Excited State   3:      Triplet-A      3.3793 eV  366.89 nm  f=0.0000  <S**2>=2.000
      59 -> 64        -0.11303
      60 -> 64         0.56268
      61 -> 64        -0.15808
      63 -> 64         0.11735
      63 -> 65         0.28513

 Excited State   4:      Singlet-A      3.5122 eV  353.01 nm  f=0.0509  <S**2>=0.000
      61 -> 64         0.27156
      63 -> 64         0.64269

 Excited State   5:      Singlet-A      3.7384 eV  331.65 nm  f=0.0178  <S**2>=0.000
      61 -> 64         0.61449
      62 -> 64         0.16394
      63 -> 64        -0.26289

 Excited State   6:      Singlet-A      3.8207 eV  324.51 nm  f=0.0161  <S**2>=0.000
      61 -> 64        -0.15059
      62 -> 64         0.68537

 The electronic state is 1-A.
 Alpha  occ. eigenvalues -- -101.56550 -19.14945 -14.37906 -14.33202 -10.28509
 Alpha  occ. eigenvalues --  -10.27840 -10.26320 -10.24843 -10.22319 -10.22097
 Alpha  occ. eigenvalues --  -10.21951 -10.21670 -10.21332 -10.20733 -10.20723
 Alpha  occ. eigenvalues --  -10.18398  -9.48064  -7.24468  -7.23509  -7.23460
 Alpha  occ. eigenvalues --   -1.04653  -0.98055  -0.91505  -0.90314  -0.84673
 Alpha  occ. eigenvalues --   -0.80234  -0.77473  -0.76102  -0.74500  -0.69816
 Alpha  occ. eigenvalues --   -0.65436  -0.62732  -0.61495  -0.60100  -0.57435
 Alpha  occ. eigenvalues --   -0.54296  -0.51140  -0.50671  -0.49065  -0.48714
 Alpha  occ. eigenvalues --   -0.46755  -0.46235  -0.45399  -0.44701  -0.44191
 Alpha  occ. eigenvalues --   -0.42997  -0.42057  -0.41035  -0.40376  -0.38704
 Alpha  occ. eigenvalues --   -0.38260  -0.37685  -0.37416  -0.36392  -0.36059
 Alpha  occ. eigenvalues --   -0.35159  -0.34697  -0.32696  -0.31384  -0.26884
 Alpha  occ. eigenvalues --   -0.26039  -0.23551  -0.22856
 Alpha virt. eigenvalues --   -0.07543  -0.02175  -0.00966   0.00221   0.00596
 Alpha virt. eigenvalues --    0.00905   0.01233   0.01631   0.02321   0.02874
 Alpha virt. eigenvalues --    0.03157   0.03966   0.04359   0.04989   0.05670

 Mulliken charges:
               1
     1  C   -0.609568
     2  C    0.079035
     3  N   -0.317150
     4  C   -0.295795
     5  C   -0.391382
     6  C   -0.029411
     7  N   -0.350655
     8  C   -1.210044
     9  C   -0.204325
    10  C   -0.078939
    11  Cl   0.259385
    12  C   -0.303183
    13  C    0.130502
    14  C    0.839493
    15  C    0.490284
    16  O   -0.462553
    17  H    0.145398
    18  H    0.162340
    19  H    0.140422
    20  H    0.116413
    21  H    0.125296
    22  H    0.268790
    23  H    0.126858
    24  H    0.134238
    25  H    0.165465
    26  H    0.160237
    27  H    0.166591
    28  H    0.298515
    29  H    0.140197
    30  H    0.145680
    31  H    0.157865
 Sum of Mulliken charges =  -0.00000

 Dipole moment (field-independent basis, Debye):
    X=             -1.1255    Y=             -1.5845    Z=              1.6594  Tot=              2.5556
 Quadrupole moment (field-independent basis, Debye-Ang):
   XX=           -105.9033   YY=           -111.9171   ZZ=            -99.5807
   XY=              2.9168   XZ=             -0.8076   YZ=              4.1856

 Normal termination of Gaussian 16 at Tue Oct  7 11:49:59 2025.
