 Gaussian 16, Revision C.02,
 Gaussian 16:  ES64L-G16RevC.02  7-Dec-2021

 ----------------------------------------------------------
 # td=(50-50,nstates=3) b3lyp/6-31+g(d,p) geom=connectivity
 ----------------------------------------------------------

 -------------------
 Title Card Required
 -------------------
 Symbolic Z-matrix:
 Charge =  0 Multiplicity = 1

                         Standard orientation:
 ---------------------------------------------------------------------
 Center     Atomic      Atomic             Coordinates (Angstroms)
 Number     Number       Type             X           Y           Z
 ---------------------------------------------------------------------
      1          6           0       -0.857490   -2.787630    1.394681
      2          8           0       -2.115531   -2.380431    0.858160
      3          6           0       -2.316911   -1.094956    0.517113
      4          6           0       -1.390677   -0.099475    0.633975
      5          6           0       -1.653015    1.262235    0.224748
      6          6           0       -0.682232    2.234813    0.356231
      7          6           0       -0.852872    3.586759   -0.068397
      8          7           0       -0.825160    4.716615   -0.360318
      9          6           0        0.683969    1.994232    1.009559
     10          6           0        1.664725    1.127434    0.220284
     11          6           0        2.663641    0.421884    0.793869
     12          6           0        3.040636    0.292484    2.290566
     13          6           0        1.974275   -0.527623    3.056654
     14          6           0        4.388516   -0.449934    2.457463
     15          6           0        3.217505    1.685282    2.944341
     16          8           0        3.554528   -0.315215    0.027442
     17          6           0        3.485500   -0.316251   -1.356796
     18          6           0        4.575784   -1.198971   -1.948748
     19          6           0        4.509309   -1.209287   -3.486611
     20          6           0        5.960245   -0.662586   -1.510311
     21          6           0        4.397138   -2.646479   -1.429775
     22          6           0        2.560216    0.396141   -2.004093
     23          6           0        1.529774    1.220616   -1.289693
     24          6           0       -2.989340    1.519716   -0.331679
     25          8           0       -3.205928    2.787268   -0.709451
     26          6           0       -4.469951    3.169244   -1.261170
     27          6           0       -3.919775    0.523169   -0.433122
     28          6           0       -3.652688   -0.823599   -0.019183
     29          6           0       -4.637277   -1.803690   -0.137084
     30          6           0       -4.525497   -3.178536    0.232692
     31          7           0       -4.550036   -4.313172    0.498113
     32          6           0       -5.914611   -1.452001   -0.675675
     33          7           0       -6.948344   -1.143936   -1.117632
     34          1           0       -0.048948   -2.595325    0.680692
     35          1           0       -0.653607   -2.270367    2.338488
     36          1           0       -0.952903   -3.858632    1.570515
     37          1           0       -0.404657   -0.331150    1.010419
     38          1           0        1.130279    2.982486    1.164937
     39          1           0        0.503530    1.582043    2.004869
     40          1           0        2.272653   -0.639490    4.105058
     41          1           0        0.986896   -0.057658    3.049902
     42          1           0        1.879200   -1.530502    2.627377
     43          1           0        4.623611   -0.510718    3.525190
     44          1           0        5.205809    0.078343    1.959603
     45          1           0        4.351151   -1.465802    2.058276
     46          1           0        3.943962    2.286111    2.387428
     47          1           0        2.289439    2.254983    3.010800
     48          1           0        3.595597    1.563364    3.965363
     49          1           0        5.302740   -1.852884   -3.880229
     50          1           0        3.553195   -1.600760   -3.849412
     51          1           0        4.655114   -0.208374   -3.905931
     52          1           0        6.754347   -1.296129   -1.920847
     53          1           0        6.057768   -0.656452   -0.421820
     54          1           0        6.117343    0.358530   -1.874479
     55          1           0        3.430493   -3.057498   -1.741301
     56          1           0        5.185787   -3.290016   -1.835053
     57          1           0        4.452092   -2.687322   -0.338778
     58          1           0        2.539257    0.382233   -3.086690
     59          1           0        0.521856    0.907389   -1.601253
     60          1           0        1.599674    2.278000   -1.598350
     61          1           0       -4.375645    4.232070   -1.480228
     62          1           0       -4.674818    2.612653   -2.181804
     63          1           0       -5.274271    3.005043   -0.536266
     64          1           0       -4.900097    0.738373   -0.835865
 ---------------------------------------------------------------------

 SCF Done:  E(RB3LYP) =  -1437.41754880     A.U. after   17 cycles

 Excitation energies and oscillator strengths:

 Excited State   1:      Triplet-A      0.9382 eV 1321.55 nm  f=0.0000  <S**2>=2.000
     118 ->120         0.73856
     118 <-120         0.25413
 This state for optimization and/or second-order correction.
 Total Energy, E(TD-HF/TD-DFT) =  -1437.38307157
 Copying the excited state density for this state as the 1-particle RhoCI density.

 Excited State   2:      Triplet-A      1.5398 eV  805.19 nm  f=0.0000  <S**2>=2.000
     119 ->120         0.70168

 Excited State   3:      Singlet-A      1.5544 eV  797.62 nm  f=0.0001  <S**2>=0.000
     119 ->120         0.70559

 Excited State   4:      Triplet-A      1.9841 eV  624.88 nm  f=0.0000  <S**2>=2.000
     117 ->120         0.69422

 Excited State   5:      Singlet-A      2.6622 eV  465.71 nm  f=0.0022  <S**2>=0.000
     117 ->120         0.70161

 Excited State   6:      Singlet-A      2.9428 eV  421.32 nm  f=0.7905  <S**2>=0.000
     116 ->120         0.24384
     118 ->120         0.66854
     118 <-120        -0.13668

 The electronic state is 1-A.
 Alpha  occ. eigenvalues --  -19.23061 -19.22735 -19.20513 -14.36036 -14.35495
 Alpha  occ. eigenvalues --  -14.35015 -10.30751 -10.30426 -10.28169 -10.27494
 Alpha  occ. eigenvalues --  -10.27125 -10.27111 -10.27107 -10.26658 -10.26284
 Alpha  occ. eigenvalues --  -10.25584 -10.25411 -10.24868 -10.24783 -10.23418
 Alpha  occ. eigenvalues --  -10.23347 -10.23247 -10.23007 -10.22204 -10.21554
 Alpha  occ. eigenvalues --  -10.21107 -10.20310 -10.19610 -10.19391 -10.19014
 Alpha  occ. eigenvalues --  -10.18912 -10.18791 -10.18649  -1.11882  -1.11577
 Alpha  occ. eigenvalues --   -1.09307  -0.93505  -0.92567  -0.91504  -0.90582
 Alpha  occ. eigenvalues --   -0.87170  -0.85629  -0.83999  -0.82814  -0.80883
 Alpha  occ. eigenvalues --   -0.80367  -0.77526  -0.76194  -0.75764  -0.72295
 Alpha  occ. eigenvalues --   -0.71113  -0.70595  -0.70254  -0.69710  -0.69560
 Alpha  occ. eigenvalues --   -0.67429  -0.65902  -0.64135  -0.63256  -0.59743
 Alpha  occ. eigenvalues --   -0.59557  -0.59020  -0.56855  -0.56287  -0.53883
 Alpha  occ. eigenvalues --   -0.53148  -0.51709  -0.51160  -0.50731  -0.50429
 Alpha  occ. eigenvalues --   -0.49721  -0.49236  -0.48392  -0.47530  -0.47353
 Alpha  occ. eigenvalues --   -0.46997  -0.46087  -0.45667  -0.44969  -0.44564
 Alpha  occ. eigenvalues --   -0.44471  -0.44188  -0.43740  -0.42967  -0.42574
 Alpha  occ. eigenvalues --   -0.42287  -0.41488  -0.41168  -0.40434  -0.40323
 Alpha  occ. eigenvalues --   -0.39815  -0.39211  -0.39075  -0.38957  -0.38646
 Alpha  occ. eigenvalues --   -0.38504  -0.38337  -0.38303  -0.37876  -0.37702
 Alpha  occ. eigenvalues --   -0.37669  -0.37438  -0.37002  -0.35859  -0.35637
 Alpha  occ. eigenvalues --   -0.35489  -0.35364  -0.34498  -0.34314  -0.33968
 Alpha  occ. eigenvalues --   -0.33702  -0.33604  -0.33247  -0.32766  -0.32322
 Alpha  occ. eigenvalues --   -0.27227  -0.26234  -0.23958  -0.21882
 Alpha virt. eigenvalues --   -0.14128  -0.04198  -0.02662  -0.02113  -0.01666
 Alpha virt. eigenvalues --   -0.01372  -0.00815  -0.00409   0.00007   0.00100
 Alpha virt. eigenvalues --    0.01016   0.01314   0.01423   0.01529   0.01848

 Mulliken charges:
               1
     1  C   -0.129895
     2  O   -0.336879
     3  C    0.241797
     4  C   -0.734050
     5  C    0.250802
     6  C    0.235220
     7  C    0.280750
     8  N   -0.465054
     9  C   -0.568964
    10  C    1.000800
    11  C   -0.176307
    12  C   -0.080481
    13  C   -0.451709
    14  C   -0.373786
    15  C   -0.364496
    16  O   -0.296919
    17  C    0.452103
    18  C    0.267647
    19  C   -0.574593
    20  C   -0.458579
    21  C   -0.481255
    22  C   -0.913649
    23  C   -0.570941
    24  C   -0.042069
    25  O   -0.335960
    26  C   -0.119068
    27  C   -0.854174
    28  C    1.051762
    29  C    1.130180
    30  C    0.028304
    31  N   -0.534460
    32  C   -0.311578
    33  N   -0.481003
    34  H    0.154520
    35  H    0.152791
    36  H    0.169648
    37  H    0.135610
    38  H    0.181573
    39  H    0.153466
    40  H    0.153497
    41  H    0.127595
    42  H    0.144075
    43  H    0.140787
    44  H    0.156781
    45  H    0.157412
    46  H    0.155917
    47  H    0.138040
    48  H    0.149263
    49  H    0.150206
    50  H    0.154319
    51  H    0.154743
    52  H    0.146209
    53  H    0.158024
    54  H    0.152420
    55  H    0.149921
    56  H    0.147565
    57  H    0.154253
    58  H    0.129420
    59  H    0.146223
    60  H    0.162594
    61  H    0.170692
    62  H    0.158969
    63  H    0.159397
    64  H    0.150577
 Sum of Mulliken charges =  -0.00000

 Dipole moment (field-independent basis, Debye):
    X=              6.5027    Y=              1.4780    Z=              1.4757  Tot=              6.8299
 Quadrupole moment (field-independent basis, Debye-Ang):
   XX=           -233.2445   YY=           -234.6958   ZZ=           -190.7037
   XY=            -33.7342   XZ=             -0.6690   YZ=              0.0969

 Normal termination of Gaussian 16 at Wed Aug 27 08:28:05 2025.
