 Gaussian 16, Revision C.02,
 Gaussian 16:  ES64L-G16RevC.02  7-Dec-2021

 ----------------------------------------------------------
 # td=(50-50,nstates=3) b3lyp/6-31+g(d,p) geom=connectivity
 ----------------------------------------------------------

 -------------------
 Title Card Required
 -------------------
 Symbolic Z-matrix:
 Charge =  0 Multiplicity = 1

                         Standard orientation:
 ---------------------------------------------------------------------
 Center     Atomic      Atomic             Coordinates (Angstroms)
 Number     Number       Type             X           Y           Z
 ---------------------------------------------------------------------
      1          6           0       -6.496670   -1.420197   -1.207680
      2          6           0       -5.067837   -1.770243   -0.776973
      3          6           0       -4.313360   -0.573800   -0.182730
      4          6           0       -2.877960   -0.936968    0.237163
      5          6           0       -2.167690    0.221074    0.913233
      6          8           0       -2.712024    0.927807    1.743010
      7          6           0       -0.745308    0.559931    0.495480
      8          6           0       -0.371458    1.862291    0.102494
      9          6           0       -1.296553    3.032883    0.015990
     10          7           0        0.914186    2.114874   -0.267491
     11          8           0        1.276626    3.288028   -0.645751
     12          6           0        1.854384    1.079581   -0.237207
     13          6           0        3.187985    1.328633   -0.612410
     14          6           0        4.111149    0.303237   -0.573864
     15          6           0        3.713527   -0.987308   -0.155986
     16         17           0        4.909220   -2.264057   -0.115367
     17          6           0        2.413480   -1.258493    0.219667
     18          6           0        1.473508   -0.213098    0.172512
     19          7           0        0.147618   -0.460135    0.543128
     20          8           0       -0.192385   -1.633632    0.945906
     21          1           0       -7.011278   -2.292754   -1.623850
     22          1           0       -7.088289   -1.057197   -0.359238
     23          1           0       -6.499382   -0.635604   -1.973589
     24          1           0       -4.511348   -2.163061   -1.639051
     25          1           0       -5.095929   -2.581284   -0.036543
     26          1           0       -4.852877   -0.187284    0.688875
     27          1           0       -4.287044    0.241402   -0.919593
     28          1           0       -2.289749   -1.297265   -0.613067
     29          1           0       -2.893493   -1.760717    0.961319
     30          1           0       -2.316973    2.760574    0.270789
     31          1           0       -0.957213    3.819785    0.698328
     32          1           0       -1.246510    3.460819   -0.990711
     33          1           0        3.451339    2.331975   -0.922755
     34          1           0        5.141702    0.480284   -0.859882
     35          1           0        2.086746   -2.236642    0.547295
 ---------------------------------------------------------------------

 SCF Done:  E(RB3LYP) =  -1337.84254552     A.U. after   17 cycles

 Excitation energies and oscillator strengths:

 Excited State   1:      Triplet-A      0.9637 eV 1286.51 nm  f=0.0000  <S**2>=2.000
      77 -> 78         0.73573
      77 -> 81        -0.16330
      77 <- 78         0.28123
 This state for optimization and/or second-order correction.
 Total Energy, E(TD-HF/TD-DFT) =  -1337.80712927
 Copying the excited state density for this state as the 1-particle RhoCI density.

 Excited State   2:      Triplet-A      2.8789 eV  430.66 nm  f=0.0000  <S**2>=2.000
      71 -> 78        -0.16988
      76 -> 78         0.14448
      77 -> 79         0.64991

 Excited State   3:      Singlet-A      2.9423 eV  421.39 nm  f=0.0790  <S**2>=0.000
      77 -> 78         0.65519
      77 -> 79         0.21001
      77 -> 81         0.13930

 Excited State   4:      Triplet-A      3.0465 eV  406.97 nm  f=0.0000  <S**2>=2.000
      74 -> 79         0.10827
      76 -> 78         0.60535
      76 -> 79         0.16862
      76 -> 80         0.14828
      77 -> 79        -0.15248

 Excited State   5:      Singlet-A      3.3659 eV  368.36 nm  f=0.0019  <S**2>=0.000
      73 -> 78        -0.15617
      76 -> 78         0.63479
      77 -> 79        -0.17131

 Excited State   6:      Singlet-A      3.4200 eV  362.53 nm  f=0.0563  <S**2>=0.000
      73 -> 78        -0.15514
      75 -> 78        -0.20384
      76 -> 78         0.12372
      77 -> 78        -0.17870
      77 -> 79         0.60123

 The electronic state is 1-A.
 Alpha  occ. eigenvalues -- -101.57978 -19.17796 -19.16356 -19.15882 -14.51652
 Alpha  occ. eigenvalues --  -14.50948 -10.31535 -10.29454 -10.28739 -10.28731
 Alpha  occ. eigenvalues --  -10.28461 -10.28369 -10.24604 -10.24302 -10.24216
 Alpha  occ. eigenvalues --  -10.20945 -10.20719 -10.19763 -10.19382 -10.18371
 Alpha  occ. eigenvalues --   -9.49473  -7.25896  -7.24910  -7.24862  -1.14835
 Alpha  occ. eigenvalues --   -1.13520  -1.07656  -0.95661  -0.92440  -0.88043
 Alpha  occ. eigenvalues --   -0.87034  -0.82351  -0.81339  -0.80803  -0.76158
 Alpha  occ. eigenvalues --   -0.74429  -0.72674  -0.66979  -0.66612  -0.64663
 Alpha  occ. eigenvalues --   -0.62588  -0.60265  -0.58638  -0.56261  -0.53586
 Alpha  occ. eigenvalues --   -0.53038  -0.50695  -0.50295  -0.49607  -0.48846
 Alpha  occ. eigenvalues --   -0.48292  -0.48054  -0.47651  -0.46085  -0.45092
 Alpha  occ. eigenvalues --   -0.44173  -0.43523  -0.42714  -0.42450  -0.41973
 Alpha  occ. eigenvalues --   -0.41698  -0.40443  -0.40214  -0.38698  -0.36289
 Alpha  occ. eigenvalues --   -0.36080  -0.34975  -0.34584  -0.34117  -0.33686
 Alpha  occ. eigenvalues --   -0.30896  -0.30502  -0.29241  -0.28772  -0.28597
 Alpha  occ. eigenvalues --   -0.27864  -0.22892
 Alpha virt. eigenvalues --   -0.11633  -0.07833  -0.04724  -0.03327  -0.00912
 Alpha virt. eigenvalues --   -0.00772   0.00357   0.01278   0.01531   0.02011
 Alpha virt. eigenvalues --    0.02477   0.02818   0.03133   0.03495   0.04396

 Mulliken charges:
               1
     1  C   -0.661786
     2  C   -0.142860
     3  C   -0.283081
     4  C   -0.127537
     5  C   -0.545974
     6  O   -0.356707
     7  C    1.093867
     8  C    0.328410
     9  C   -0.681437
    10  N   -0.460141
    11  O    0.055928
    12  C    0.251908
    13  C   -0.706891
    14  C   -0.084620
    15  C    0.244231
    16  Cl   0.281480
    17  C   -0.408772
    18  C    0.198302
    19  N   -0.567910
    20  O    0.116004
    21  H    0.146939
    22  H    0.149163
    23  H    0.145686
    24  H    0.138209
    25  H    0.141946
    26  H    0.170308
    27  H    0.135214
    28  H    0.156130
    29  H    0.194395
    30  H    0.165671
    31  H    0.190138
    32  H    0.185091
    33  H    0.186584
    34  H    0.159322
    35  H    0.192791
 Sum of Mulliken charges =  -0.00000

 Dipole moment (field-independent basis, Debye):
    X=              0.3248    Y=             -0.5162    Z=             -2.1543  Tot=              2.2390
 Quadrupole moment (field-independent basis, Debye-Ang):
   XX=           -116.2420   YY=           -136.3932   ZZ=           -130.8121
   XY=              2.1646   XZ=              4.5072   YZ=              1.4167

 Normal termination of Gaussian 16 at Tue Oct  7 11:57:43 2025.
