 Gaussian 16, Revision C.02,
 Gaussian 16:  ES64L-G16RevC.02  7-Dec-2021

 ----------------------------------------------------------
 # td=(50-50,nstates=3) b3lyp/6-31+g(d,p) geom=connectivity
 ----------------------------------------------------------

 -------------------
 Title Card Required
 -------------------
 Symbolic Z-matrix:
 Charge =  0 Multiplicity = 1

                         Standard orientation:
 ---------------------------------------------------------------------
 Center     Atomic      Atomic             Coordinates (Angstroms)
 Number     Number       Type             X           Y           Z
 ---------------------------------------------------------------------
      1          6           0        4.996307    0.001253   -1.882345
      2          6           0        3.454322    0.001142   -1.737246
      3          6           0        2.970700    1.283913   -2.465008
      4          6           0        2.970770   -1.280756   -2.466600
      5          6           0        3.009977    0.000181   -0.243716
      6          6           0        4.008477   -0.000453    0.755050
      7          6           0        3.747019   -0.001391    2.118029
      8          6           0        2.426980   -0.001787    2.555764
      9          8           0        2.192332   -0.002735    3.891571
     10          6           0        1.394610   -0.001188    1.591432
     11          6           0        0.078610   -0.001596    2.156990
     12          7           0       -0.871686   -0.002150    2.834913
     13          6           0        1.663011   -0.000192    0.196107
     14          6           0        0.444031    0.000411   -0.746650
     15          6           0       -0.414617    1.236863   -0.581777
     16          6           0       -1.745727    1.195177   -0.436779
     17          6           0       -2.700338    2.374680   -0.299936
     18          6           0       -1.943326    3.714801   -0.318540
     19          6           0       -3.703193    2.348818   -1.479310
     20          6           0       -3.472602    2.252759    1.036339
     21          8           0       -2.439200    0.000306   -0.394712
     22          6           0       -1.745819   -1.194548   -0.438328
     23          6           0       -2.700566   -2.374118   -0.302998
     24          6           0       -1.943792   -3.714353   -0.323529
     25          6           0       -3.472697   -2.253889    1.033492
     26          6           0       -3.703561   -2.346473   -1.482239
     27          6           0       -0.414703   -1.236172   -0.583356
     28          1           0        5.456970   -0.888387   -1.440606
     29          1           0        5.248673    0.002037   -2.947418
     30          1           0        5.456970    0.890250   -1.439319
     31          1           0        1.885749    1.394421   -2.493454
     32          1           0        3.326044    1.278912   -3.501935
     33          1           0        3.380545    2.173766   -1.974816
     34          1           0        3.326455   -1.274651   -3.503406
     35          1           0        3.380359   -2.171189   -1.977242
     36          1           0        1.885817   -1.391101   -2.495565
     37          1           0        5.049943   -0.000202    0.464448
     38          1           0        4.549641   -0.001832    2.847423
     39          1           0        1.237095   -0.002698    4.071536
     40          1           0        0.837059    0.001041   -1.762366
     41          1           0        0.082318    2.198682   -0.603769
     42          1           0       -2.660166    4.536480   -0.219779
     43          1           0       -1.234075    3.791133    0.512052
     44          1           0       -1.397550    3.862399   -1.256602
     45          1           0       -4.413463    3.177661   -1.383251
     46          1           0       -4.270365    1.414560   -1.497509
     47          1           0       -3.184698    2.453985   -2.438842
     48          1           0       -2.786945    2.247033    1.889123
     49          1           0       -4.157430    3.101149    1.146287
     50          1           0       -4.059954    1.332116    1.072638
     51          1           0       -2.660774   -4.536040   -0.225878
     52          1           0       -1.398093   -3.860734   -1.261823
     53          1           0       -1.234507   -3.792006    0.506916
     54          1           0       -4.157588   -3.102364    1.142416
     55          1           0       -4.059975   -1.333251    1.071050
     56          1           0       -2.786990   -2.249335    1.886244
     57          1           0       -4.270816   -1.412237   -1.498876
     58          1           0       -3.185170   -2.450065   -2.441996
     59          1           0       -4.413727   -3.175550   -1.387404
     60          1           0        0.082155   -2.197995   -0.606604
 ---------------------------------------------------------------------

 SCF Done:  E(RB3LYP) =  -1139.67825507     A.U. after   16 cycles

 Excitation energies and oscillator strengths:

 Excited State   1:      Triplet-A      3.3585 eV  369.16 nm  f=0.0000  <S**2>=2.000
      97 ->101        -0.32397
      98 ->101         0.39686
      99 ->101        -0.32540
      99 ->102        -0.31535
      99 ->106         0.11106
 This state for optimization and/or second-order correction.
 Total Energy, E(TD-HF/TD-DFT) =  -1139.55483233
 Copying the excited state density for this state as the 1-particle RhoCI density.

 Excited State   2:      Triplet-A      3.5032 eV  353.91 nm  f=0.0000  <S**2>=2.000
     100 ->101         0.69897

 Excited State   3:      Triplet-A      3.5200 eV  352.23 nm  f=0.0000  <S**2>=2.000
      97 ->101        -0.19108
      98 ->101         0.16697
      99 ->101         0.61885
      99 ->102        -0.17959

 Excited State   4:      Singlet-A      3.5626 eV  348.01 nm  f=0.0000  <S**2>=0.000
     100 ->101         0.70547

 Excited State   5:      Singlet-A      4.3930 eV  282.23 nm  f=0.0881  <S**2>=0.000
      97 ->102        -0.12924
      98 ->102         0.15916
      99 ->101         0.66417

 Excited State   6:      Singlet-A      4.4186 eV  280.60 nm  f=0.0006  <S**2>=0.000
     100 ->102         0.70363

 The electronic state is 1-A.
 Alpha  occ. eigenvalues --  -19.20278 -19.19642 -14.34718 -10.27867 -10.25000
 Alpha  occ. eigenvalues --  -10.25000 -10.24268 -10.23650 -10.22841 -10.22427
 Alpha  occ. eigenvalues --  -10.21601 -10.21474 -10.21134 -10.21133 -10.21095
 Alpha  occ. eigenvalues --  -10.20440 -10.18849 -10.18726 -10.18726 -10.18565
 Alpha  occ. eigenvalues --  -10.18564 -10.17986 -10.17985 -10.17746 -10.17745
 Alpha  occ. eigenvalues --  -10.17142 -10.17141  -1.08567  -1.08464  -0.91875
 Alpha  occ. eigenvalues --   -0.88328  -0.84306  -0.83033  -0.82791  -0.81436
 Alpha  occ. eigenvalues --   -0.77529  -0.75235  -0.74980  -0.70304  -0.69944
 Alpha  occ. eigenvalues --   -0.69447  -0.69093  -0.68489  -0.68365  -0.67559
 Alpha  occ. eigenvalues --   -0.65391  -0.64332  -0.62103  -0.58843  -0.57465
 Alpha  occ. eigenvalues --   -0.56775  -0.54862  -0.52202  -0.50886  -0.49767
 Alpha  occ. eigenvalues --   -0.49692  -0.48274  -0.46749  -0.46382  -0.45995
 Alpha  occ. eigenvalues --   -0.45475  -0.45062  -0.43987  -0.43882  -0.43690
 Alpha  occ. eigenvalues --   -0.43320  -0.42903  -0.42406  -0.42361  -0.41315
 Alpha  occ. eigenvalues --   -0.40386  -0.40029  -0.39212  -0.38846  -0.38845
 Alpha  occ. eigenvalues --   -0.38761  -0.37831  -0.37802  -0.37541  -0.37316
 Alpha  occ. eigenvalues --   -0.37170  -0.36678  -0.36595  -0.36324  -0.36321
 Alpha  occ. eigenvalues --   -0.35394  -0.35216  -0.34715  -0.33796  -0.33694
 Alpha  occ. eigenvalues --   -0.33622  -0.33166  -0.32874  -0.32809  -0.32594
 Alpha  occ. eigenvalues --   -0.31659  -0.27141  -0.25692  -0.23935  -0.21471
 Alpha virt. eigenvalues --   -0.05532  -0.02454  -0.00784   0.00250   0.00570
 Alpha virt. eigenvalues --    0.00618   0.01040   0.01239   0.01558   0.02271
 Alpha virt. eigenvalues --    0.02322   0.02634   0.03192   0.03576   0.03618

 Mulliken charges:
               1
     1  C   -0.330799
     2  C    0.264347
     3  C   -0.493315
     4  C   -0.493292
     5  C   -0.139764
     6  C   -0.217149
     7  C    0.222185
     8  C   -0.939865
     9  O   -0.482160
    10  C    0.489255
    11  C    0.062069
    12  N   -0.334695
    13  C   -0.141705
    14  C    1.101534
    15  C   -0.436482
    16  C    0.182634
    17  C    0.151516
    18  C   -0.570782
    19  C   -0.473404
    20  C   -0.546797
    21  O   -0.227898
    22  C    0.182624
    23  C    0.151547
    24  C   -0.570793
    25  C   -0.546817
    26  C   -0.473413
    27  C   -0.436813
    28  H    0.153231
    29  H    0.152271
    30  H    0.153222
    31  H    0.138334
    32  H    0.145235
    33  H    0.150872
    34  H    0.145232
    35  H    0.150876
    36  H    0.138336
    37  H    0.123941
    38  H    0.141549
    39  H    0.356768
    40  H    0.103630
    41  H    0.125361
    42  H    0.148245
    43  H    0.157383
    44  H    0.150325
    45  H    0.145107
    46  H    0.157914
    47  H    0.148740
    48  H    0.169242
    49  H    0.139696
    50  H    0.155354
    51  H    0.148244
    52  H    0.150328
    53  H    0.157381
    54  H    0.139695
    55  H    0.155350
    56  H    0.169251
    57  H    0.157911
    58  H    0.148741
    59  H    0.145105
    60  H    0.125365
 Sum of Mulliken charges =  -0.00000

 Dipole moment (field-independent basis, Debye):
    X=              1.9329    Y=              0.0026    Z=             -2.9888  Tot=              3.5594
 Quadrupole moment (field-independent basis, Debye-Ang):
   XX=           -159.5767   YY=           -163.8502   ZZ=           -175.9803
   XY=              0.0010   XZ=             -1.6341   YZ=              0.0100

 Normal termination of Gaussian 16 at Wed Aug 27 08:29:47 2025.
