 Gaussian 16, Revision C.02,
 Gaussian 16:  ES64L-G16RevC.02  7-Dec-2021

 ----------------------------------------------------------
 # td=(50-50,nstates=3) b3lyp/6-31+g(d,p) geom=connectivity
 ----------------------------------------------------------

 -------------------
 Title Card Required
 -------------------
 Symbolic Z-matrix:
 Charge =  0 Multiplicity = 1

                         Standard orientation:
 ---------------------------------------------------------------------
 Center     Atomic      Atomic             Coordinates (Angstroms)
 Number     Number       Type             X           Y           Z
 ---------------------------------------------------------------------
      1          6           0       -0.300514   -3.177030    0.001768
      2          6           0       -1.206396   -1.921053    0.000677
      3          6           0       -2.044995   -2.024702   -1.302649
      4          6           0       -2.046355   -2.023451    1.303192
      5          6           0       -0.393012   -0.606562    0.000385
      6          6           0        0.973365   -0.690715    0.000241
      7          6           0        1.880336    0.429462    0.000104
      8          6           0        3.257726    0.237709   -0.000259
      9          6           0        4.167760    1.337680   -0.000322
     10          7           0        4.902839    2.241455   -0.000354
     11          6           0        3.840383   -1.065768   -0.000645
     12          7           0        4.308063   -2.132810   -0.001013
     13          6           0        1.303669    1.745787    0.000418
     14          6           0       -0.040762    1.881375    0.000595
     15          6           0       -0.977346    0.759044    0.000254
     16          6           0       -2.322182    1.148706   -0.000218
     17          6           0       -3.519346    0.370032   -0.001636
     18          7           0       -4.572424   -0.129283   -0.002949
     19          6           0       -2.672137    2.543191    0.000400
     20          7           0       -3.000853    3.660625    0.001063
     21          1           0        0.333051   -3.240100    0.892038
     22          1           0       -0.945265   -4.060850    0.002335
     23          1           0        0.333327   -3.241457   -0.888201
     24          1           0       -2.673218   -1.162274   -1.512330
     25          1           0       -2.704319   -2.896651   -1.246567
     26          1           0       -1.375214   -2.161178   -2.158240
     27          1           0       -1.377531   -2.160092    2.159508
     28          1           0       -2.674038   -1.160411    1.511941
     29          1           0       -2.706362   -2.894870    1.246867
     30          1           0        1.435733   -1.666993    0.000310
     31          1           0        1.944661    2.620747    0.000469
     32          1           0       -0.455379    2.881993    0.000811
 ---------------------------------------------------------------------

 SCF Done:  E(RB3LYP) =  -835.855522497     A.U. after   17 cycles

 Excitation energies and oscillator strengths:

 Excited State   1:      Triplet-A      0.6682 eV 1855.53 nm  f=0.0000  <S**2>=2.000
      68 -> 69         0.78391
      68 <- 69         0.35721
 This state for optimization and/or second-order correction.
 Total Energy, E(TD-HF/TD-DFT) =  -835.830967090
 Copying the excited state density for this state as the 1-particle RhoCI density.

 Excited State   2:      Triplet-A      2.4372 eV  508.71 nm  f=0.0000  <S**2>=2.000
      67 -> 69         0.68945
      68 -> 71         0.12172

 Excited State   3:      Singlet-A      2.8972 eV  427.94 nm  f=0.8069  <S**2>=0.000
      67 -> 69        -0.27403
      68 -> 69         0.66330
      68 <- 69        -0.15441

 Excited State   4:      Triplet-A      2.9487 eV  420.47 nm  f=0.0000  <S**2>=2.000
      66 -> 69         0.66277
      68 -> 70        -0.21623

 Excited State   5:      Singlet-A      3.0339 eV  408.67 nm  f=0.1825  <S**2>=0.000
      67 -> 69         0.64941
      68 -> 69         0.28066

 Excited State   6:      Singlet-A      3.8923 eV  318.54 nm  f=0.0001  <S**2>=0.000
      65 -> 69         0.69732

 The electronic state is 1-A.
 Alpha  occ. eigenvalues --  -14.38885 -14.38884 -14.38793 -14.38757 -10.32179
 Alpha  occ. eigenvalues --  -10.31676 -10.30418 -10.29322 -10.28203 -10.28025
 Alpha  occ. eigenvalues --  -10.27989 -10.27917 -10.27686 -10.26441 -10.26197
 Alpha  occ. eigenvalues --  -10.25757 -10.25322 -10.20958 -10.20717 -10.20716
 Alpha  occ. eigenvalues --   -0.96836  -0.96403  -0.94847  -0.94771  -0.93537
 Alpha  occ. eigenvalues --   -0.89312  -0.86736  -0.84144  -0.80472  -0.77047
 Alpha  occ. eigenvalues --   -0.72244  -0.72085  -0.69256  -0.68242  -0.63644
 Alpha  occ. eigenvalues --   -0.62006  -0.59845  -0.58232  -0.55771  -0.51071
 Alpha  occ. eigenvalues --   -0.50239  -0.49468  -0.48161  -0.47430  -0.46694
 Alpha  occ. eigenvalues --   -0.45791  -0.45625  -0.42473  -0.42108  -0.41256
 Alpha  occ. eigenvalues --   -0.41168  -0.41023  -0.40795  -0.40645  -0.40498
 Alpha  occ. eigenvalues --   -0.39880  -0.39254  -0.38627  -0.38392  -0.37717
 Alpha  occ. eigenvalues --   -0.37451  -0.37375  -0.36934  -0.36786  -0.35235
 Alpha  occ. eigenvalues --   -0.34733  -0.32109  -0.27440
 Alpha virt. eigenvalues --   -0.18195  -0.07382  -0.06617  -0.05010  -0.04111
 Alpha virt. eigenvalues --   -0.02188  -0.00527  -0.00238  -0.00177   0.00248
 Alpha virt. eigenvalues --    0.00989   0.01090   0.01120   0.02250   0.02280

 Mulliken charges:
               1
     1  C   -0.380291
     2  C    0.214623
     3  C   -0.542389
     4  C   -0.542554
     5  C    0.010605
     6  C   -0.248033
     7  C    0.906938
     8  C    0.884525
     9  C   -0.208000
    10  N   -0.456953
    11  C   -0.595266
    12  N   -0.463595
    13  C   -0.545972
    14  C   -0.656859
    15  C    1.315877
    16  C    0.752391
    17  C   -0.174696
    18  N   -0.400874
    19  C   -0.323743
    20  N   -0.442447
    21  H    0.159744
    22  H    0.166288
    23  H    0.159736
    24  H    0.143715
    25  H    0.162469
    26  H    0.153927
    27  H    0.153925
    28  H    0.143625
    29  H    0.162492
    30  H    0.152444
    31  H    0.173107
    32  H    0.165241
 Sum of Mulliken charges =  -0.00000

 Dipole moment (field-independent basis, Debye):
    X=             -0.7671    Y=             -2.4315    Z=              0.0035  Tot=              2.5497
 Quadrupole moment (field-independent basis, Debye-Ang):
   XX=           -168.1227   YY=           -132.4219   ZZ=           -116.5696
   XY=              9.6666   XZ=             -0.0064   YZ=             -0.0095

 Normal termination of Gaussian 16 at Wed Aug 27 08:32:00 2025.
