 Gaussian 16, Revision C.02,
 Gaussian 16:  ES64L-G16RevC.02  7-Dec-2021

 ----------------------------------------------------------
 # td=(50-50,nstates=3) b3lyp/6-31+g(d,p) geom=connectivity
 ----------------------------------------------------------

 -------------------
 Title Card Required
 -------------------
 Symbolic Z-matrix:
 Charge =  0 Multiplicity = 1

                         Standard orientation:
 ---------------------------------------------------------------------
 Center     Atomic      Atomic             Coordinates (Angstroms)
 Number     Number       Type             X           Y           Z
 ---------------------------------------------------------------------
      1          6           0        3.324057    1.183938    0.247153
      2          6           0        2.765129   -0.187091   -0.196936
      3          6           0        2.832119   -0.285755   -1.737281
      4          6           0        3.656376   -1.298205    0.409198
      5         14           0        0.958320   -0.452876    0.429065
      6          6           0        0.469601   -2.274120    0.282503
      7          6           0        0.746458    0.131827    2.211265
      8          6           0       -0.303245    0.541760   -0.708519
      9          6           0       -0.029025    1.972054   -0.638524
     10          7           0        0.208215    3.107938   -0.548459
     11          6           0       -1.759735    0.210596   -0.402903
     12          6           0       -2.471341    0.872860    0.608325
     13          6           0       -3.796359    0.529967    0.887463
     14          6           0       -4.433195   -0.479858    0.161484
     15          6           0       -3.734764   -1.139909   -0.852731
     16          6           0       -2.410659   -0.795073   -1.132776
     17          1           0        3.349334    1.278872    1.338352
     18          1           0        4.356269    1.297424   -0.112859
     19          1           0        2.743232    2.022294   -0.147661
     20          1           0        2.423903   -1.232466   -2.112370
     21          1           0        3.876802   -0.229929   -2.072980
     22          1           0        2.295835    0.535064   -2.226310
     23          1           0        4.702189   -1.139168    0.112002
     24          1           0        3.630327   -1.298530    1.505623
     25          1           0        3.367592   -2.296977    0.064680
     26          1           0       -0.580946   -2.420790    0.551305
     27          1           0        1.075635   -2.883988    0.961227
     28          1           0        0.613759   -2.664432   -0.731250
     29          1           0        1.470039   -0.365977    2.866966
     30          1           0        0.896805    1.211986    2.306922
     31          1           0       -0.255256   -0.106400    2.583977
     32          1           0       -0.078865    0.218902   -1.733030
     33          1           0       -1.994838    1.672375    1.168191
     34          1           0       -4.332146    1.059208    1.670221
     35          1           0       -5.464361   -0.743090    0.377288
     36          1           0       -4.221090   -1.918460   -1.433545
     37          1           0       -1.880694   -1.309168   -1.930780
 ---------------------------------------------------------------------

 SCF Done:  E(RB3LYP) =  -890.462642769     A.U. after   15 cycles

 Excitation energies and oscillator strengths:

 Excited State   1:      Triplet-A      3.6837 eV  336.57 nm  f=0.0000  <S**2>=2.000
      62 -> 64         0.25814
      62 -> 65        -0.35670
      63 -> 64         0.42023
      63 -> 65         0.30819
 This state for optimization and/or second-order correction.
 Total Energy, E(TD-HF/TD-DFT) =  -890.327269202
 Copying the excited state density for this state as the 1-particle RhoCI density.

 Excited State   2:      Triplet-A      4.5007 eV  275.48 nm  f=0.0000  <S**2>=2.000
      62 -> 64        -0.20480
      62 -> 65        -0.19887
      63 -> 64        -0.39320
      63 -> 65         0.48820

 Excited State   3:      Triplet-A      4.5676 eV  271.44 nm  f=0.0000  <S**2>=2.000
      62 -> 64        -0.34966
      62 -> 65         0.41356
      63 -> 64         0.32889
      63 -> 65         0.28552

 Excited State   4:      Singlet-A      5.1643 eV  240.08 nm  f=0.0015  <S**2>=0.000
      62 -> 64         0.33722
      62 -> 65         0.24753
      63 -> 64        -0.34323
      63 -> 65         0.44778

 Excited State   5:      Singlet-A      5.6539 eV  219.29 nm  f=0.1800  <S**2>=0.000
      62 -> 64         0.18672
      62 -> 65        -0.20134
      63 -> 64         0.51700
      63 -> 65         0.35986
      63 -> 66        -0.12646

 Excited State   6:      Singlet-A      5.7140 eV  216.98 nm  f=0.0020  <S**2>=0.000
      63 -> 65         0.11063
      63 -> 66         0.66749
      63 -> 67         0.12742

 The electronic state is 1-A.
 Alpha  occ. eigenvalues --  -66.14602 -14.33698 -10.23379 -10.23215 -10.22464
 Alpha  occ. eigenvalues --  -10.20718 -10.20662 -10.20598 -10.20413 -10.20401
 Alpha  occ. eigenvalues --  -10.19906 -10.18836 -10.18806 -10.17884 -10.17784
 Alpha  occ. eigenvalues --  -10.17591  -5.28928  -3.64928  -3.64754  -3.64725
 Alpha  occ. eigenvalues --   -0.90811  -0.87270  -0.81190  -0.80008  -0.75964
 Alpha  occ. eigenvalues --   -0.72753  -0.71300  -0.69631  -0.69340  -0.68541
 Alpha  occ. eigenvalues --   -0.62224  -0.60840  -0.56521  -0.53508  -0.51190
 Alpha  occ. eigenvalues --   -0.49025  -0.47870  -0.45994  -0.44689  -0.44445
 Alpha  occ. eigenvalues --   -0.44285  -0.43404  -0.42958  -0.42634  -0.41032
 Alpha  occ. eigenvalues --   -0.40503  -0.40260  -0.39125  -0.38652  -0.38515
 Alpha  occ. eigenvalues --   -0.37459  -0.37017  -0.36429  -0.35981  -0.35478
 Alpha  occ. eigenvalues --   -0.34056  -0.33989  -0.32866  -0.31581  -0.30331
 Alpha  occ. eigenvalues --   -0.28269  -0.26643  -0.25098
 Alpha virt. eigenvalues --   -0.02658  -0.02546  -0.01660   0.00144   0.00332
 Alpha virt. eigenvalues --    0.01088   0.01932   0.02124   0.02387   0.02724
 Alpha virt. eigenvalues --    0.03397   0.03626   0.04222   0.04459   0.05039

 Mulliken charges:
               1
     1  C   -0.488538
     2  C   -0.078277
     3  C   -0.467793
     4  C   -0.523194
     5  Si   0.857346
     6  C   -0.680482
     7  C   -0.625207
     8  C   -0.238162
     9  C   -0.212312
    10  N   -0.376690
    11  C    0.353645
    12  C   -0.358368
    13  C   -0.213734
    14  C   -0.113349
    15  C   -0.031806
    16  C   -0.022447
    17  H    0.149056
    18  H    0.142814
    19  H    0.175151
    20  H    0.141932
    21  H    0.149516
    22  H    0.155016
    23  H    0.149711
    24  H    0.146640
    25  H    0.153722
    26  H    0.183616
    27  H    0.166457
    28  H    0.162985
    29  H    0.162615
    30  H    0.183917
    31  H    0.174922
    32  H    0.190341
    33  H    0.136088
    34  H    0.128816
    35  H    0.126581
    36  H    0.127141
    37  H    0.112334
 Sum of Mulliken charges =  -0.00000

 Dipole moment (field-independent basis, Debye):
    X=             -0.2226    Y=             -4.2518    Z=              0.4492  Tot=              4.2813
 Quadrupole moment (field-independent basis, Debye-Ang):
   XX=           -100.8137   YY=           -122.7436   ZZ=           -105.0969
   XY=             -0.2443   XZ=             -1.1758   YZ=              5.3841

 Normal termination of Gaussian 16 at Wed Aug 27 08:35:41 2025.
