 Gaussian 16, Revision C.02,
 Gaussian 16:  ES64L-G16RevC.02  7-Dec-2021

 ----------------------------------------------------------
 # td=(50-50,nstates=3) b3lyp/6-31+g(d,p) geom=connectivity
 ----------------------------------------------------------

 -------------------
 Title Card Required
 -------------------
 Symbolic Z-matrix:
 Charge =  0 Multiplicity = 1

                         Standard orientation:
 ---------------------------------------------------------------------
 Center     Atomic      Atomic             Coordinates (Angstroms)
 Number     Number       Type             X           Y           Z
 ---------------------------------------------------------------------
      1          6           0       -1.253137    3.269739    0.132564
      2          6           0       -0.386097    2.061396   -0.003425
      3          6           0       -0.843123    0.798141   -0.408431
      4          6           0       -2.289851    0.546115   -0.824424
      5          8           0       -2.682526    1.030966   -1.867572
      6          6           0       -3.212997   -0.183146    0.131265
      7          6           0       -4.325366   -1.032268   -0.549607
      8          6           0       -4.599364   -2.160824    0.483193
      9          6           0       -3.637596   -1.851601    1.665303
     10          7           0       -2.541328   -1.036991    1.116106
     11          7           0       -0.023836   -0.264736   -0.525864
     12          8           0       -0.480293   -1.411793   -0.922090
     13          6           0        1.327083   -0.111648   -0.219626
     14          6           0        2.200488   -1.207684   -0.340242
     15          6           0        3.530430   -1.021777   -0.022535
     16         17           0        4.646418   -2.362392   -0.157693
     17          6           0        4.022855    0.230479    0.411898
     18          6           0        3.164617    1.305158    0.525816
     19          6           0        1.802481    1.145156    0.209120
     20          7           0        0.926442    2.231091    0.316932
     21          8           0        1.367108    3.369282    0.711468
     22          1           0       -2.279196    3.059365   -0.164918
     23          1           0       -1.227464    3.631648    1.166007
     24          1           0       -0.858062    4.080128   -0.488667
     25          1           0       -3.697910    0.635350    0.694457
     26          1           0       -5.211001   -0.431811   -0.771669
     27          1           0       -3.957507   -1.432540   -1.498401
     28          1           0       -4.369401   -3.139077    0.049108
     29          1           0       -5.645570   -2.185615    0.804438
     30          1           0       -4.155523   -1.265241    2.435461
     31          1           0       -3.236089   -2.746816    2.147660
     32          1           0       -1.895040   -1.645251    0.609814
     33          1           0        1.801707   -2.155553   -0.677039
     34          1           0        5.074423    0.338643    0.651873
     35          1           0        3.501730    2.280825    0.852768
 ---------------------------------------------------------------------

 SCF Done:  E(RB3LYP) =  -1391.97375799     A.U. after   17 cycles

 Excitation energies and oscillator strengths:

 Excited State   1:      Triplet-A      1.0805 eV 1147.45 nm  f=0.0000  <S**2>=2.000
      79 -> 81        -0.14696
      80 -> 81         0.71646
      80 -> 84         0.14980
      80 <- 81         0.24919
 This state for optimization and/or second-order correction.
 Total Energy, E(TD-HF/TD-DFT) =  -1391.93404969
 Copying the excited state density for this state as the 1-particle RhoCI density.

 Excited State   2:      Singlet-A      2.8678 eV  432.34 nm  f=0.0211  <S**2>=0.000
      79 -> 81         0.52302
      80 -> 81         0.46807

 Excited State   3:      Triplet-A      2.8857 eV  429.66 nm  f=0.0000  <S**2>=2.000
      79 -> 81         0.66151
      80 -> 81         0.14497
      80 -> 82        -0.13873

 Excited State   4:      Triplet-A      3.1365 eV  395.29 nm  f=0.0000  <S**2>=2.000
      73 -> 81         0.15270
      78 -> 81        -0.16825
      79 -> 81         0.16153
      79 -> 82        -0.10565
      80 -> 82         0.61969

 Excited State   5:      Singlet-A      3.1523 eV  393.32 nm  f=0.0779  <S**2>=0.000
      79 -> 81        -0.45766
      80 -> 81         0.48708
      80 -> 82        -0.14278
      80 -> 84        -0.14591

 Excited State   6:      Singlet-A      3.4763 eV  356.66 nm  f=0.0045  <S**2>=0.000
      75 -> 81        -0.11341
      76 -> 81        -0.22696
      77 -> 81        -0.10554
      78 -> 81         0.53537
      80 -> 82         0.34387

 The electronic state is 1-A.
 Alpha  occ. eigenvalues -- -101.57939 -19.18236 -19.16282 -19.16201 -14.51276
 Alpha  occ. eigenvalues --  -14.51222 -14.33205 -10.31908 -10.29428 -10.28775
 Alpha  occ. eigenvalues --  -10.28688 -10.28531 -10.28435 -10.24520 -10.24239
 Alpha  occ. eigenvalues --  -10.24203 -10.24012 -10.21740 -10.21542 -10.19556
 Alpha  occ. eigenvalues --  -10.19263  -9.49435  -7.25857  -7.24872  -7.24824
 Alpha  occ. eigenvalues --   -1.14750  -1.13503  -1.08076  -0.95753  -0.93515
 Alpha  occ. eigenvalues --   -0.92437  -0.88058  -0.87180  -0.82103  -0.80960
 Alpha  occ. eigenvalues --   -0.76736  -0.76206  -0.74699  -0.72515  -0.67108
 Alpha  occ. eigenvalues --   -0.65082  -0.64285  -0.62445  -0.60805  -0.58330
 Alpha  occ. eigenvalues --   -0.56111  -0.54979  -0.53179  -0.51804  -0.50663
 Alpha  occ. eigenvalues --   -0.49679  -0.49078  -0.48296  -0.48057  -0.47936
 Alpha  occ. eigenvalues --   -0.47074  -0.45700  -0.44556  -0.44062  -0.43753
 Alpha  occ. eigenvalues --   -0.42678  -0.42467  -0.41865  -0.41547  -0.40441
 Alpha  occ. eigenvalues --   -0.39921  -0.37133  -0.36193  -0.35753  -0.35351
 Alpha  occ. eigenvalues --   -0.34077  -0.33399  -0.30958  -0.30473  -0.29459
 Alpha  occ. eigenvalues --   -0.29144  -0.28589  -0.28075  -0.24763  -0.22910
 Alpha virt. eigenvalues --   -0.11362  -0.07209  -0.05610  -0.03508  -0.00879
 Alpha virt. eigenvalues --   -0.00481   0.00195   0.00857   0.01755   0.01795
 Alpha virt. eigenvalues --    0.02428   0.02699   0.03123   0.03704   0.04388

 Mulliken charges:
               1
     1  C   -0.698790
     2  C    0.511391
     3  C    0.633891
     4  C   -0.450995
     5  O   -0.335069
     6  C   -0.121381
     7  C   -0.296729
     8  C   -0.288248
     9  C   -0.155600
    10  N   -0.214144
    11  N   -0.443863
    12  O    0.031219
    13  C    0.108693
    14  C   -0.521452
    15  C    0.302064
    16  Cl   0.278839
    17  C    0.018138
    18  C   -0.500273
    19  C    0.084103
    20  N   -0.487378
    21  O    0.077660
    22  H    0.158241
    23  H    0.189038
    24  H    0.192535
    25  H    0.163243
    26  H    0.151370
    27  H    0.168856
    28  H    0.151228
    29  H    0.143371
    30  H    0.138446
    31  H    0.137004
    32  H    0.338712
    33  H    0.191274
    34  H    0.159355
    35  H    0.185251
 Sum of Mulliken charges =  -0.00000

 Dipole moment (field-independent basis, Debye):
    X=             -0.1523    Y=             -0.4791    Z=              1.8086  Tot=              1.8771
 Quadrupole moment (field-independent basis, Debye-Ang):
   XX=           -116.0940   YY=           -135.6967   ZZ=           -138.8969
   XY=              0.5355   XZ=             -5.9935   YZ=             -1.7989

 Normal termination of Gaussian 16 at Tue Oct  7 12:01:01 2025.
