 Gaussian 16, Revision C.02,
 Gaussian 16:  ES64L-G16RevC.02  7-Dec-2021

 ----------------------------------------------------------
 # td=(50-50,nstates=3) b3lyp/6-31+g(d,p) geom=connectivity
 ----------------------------------------------------------

 -------------------
 Title Card Required
 -------------------
 Symbolic Z-matrix:
 Charge =  0 Multiplicity = 2

                         Standard orientation:
 ---------------------------------------------------------------------
 Center     Atomic      Atomic             Coordinates (Angstroms)
 Number     Number       Type             X           Y           Z
 ---------------------------------------------------------------------
      1          6           0        3.080293    3.630751    1.038300
      2          6           0        3.358704    2.551316   -0.017913
      3          6           0        2.955391    3.034804   -1.419333
      4          6           0        2.643094    1.237093    0.361505
      5          6           0        3.090920    0.046246   -0.482945
      6          8           0        4.267759   -0.067935   -0.794974
      7          6           0        2.089452   -0.940630   -1.040097
      8          6           0        2.414993   -1.463232   -2.303930
      9          6           0        1.544675   -2.296718   -2.999406
     10          6           0        0.318465   -2.645076   -2.422951
     11          6           0       -0.010384   -2.173488   -1.157673
     12          6           0        0.861488   -1.324570   -0.439000
     13          6           0        0.503411   -0.972039    0.933318
     14          6           0        1.335395   -1.211161    2.086589
     15          8           0        2.514101   -1.450120    2.206415
     16          8           0        0.494808   -1.187782    3.219028
     17          7           0       -0.836568   -0.879359    2.821426
     18          7           0       -0.783292   -0.788561    1.382236
     19          6           0       -1.938682   -0.285772    0.763578
     20          6           0       -1.857445    0.489159   -0.407398
     21          6           0       -3.018719    0.986086   -0.992461
     22          6           0       -4.259801    0.726847   -0.406051
     23         17           0       -5.717555    1.362757   -1.144188
     24          6           0       -4.350616   -0.031751    0.762735
     25          6           0       -3.193818   -0.543132    1.345692
     26          1           0        3.605943    4.560629    0.794288
     27          1           0        2.008750    3.863506    1.096502
     28          1           0        3.408939    3.311692    2.033825
     29          1           0        4.433979    2.339390   -0.024945
     30          1           0        3.188161    2.289989   -2.187322
     31          1           0        3.487304    3.955822   -1.682135
     32          1           0        1.879368    3.249687   -1.466646
     33          1           0        2.883466    0.986421    1.401896
     34          1           0        1.556432    1.372240    0.304586
     35          1           0        3.370229   -1.180064   -2.732556
     36          1           0        1.817511   -2.671494   -3.981132
     37          1           0       -0.369918   -3.301207   -2.947422
     38          1           0       -0.937298   -2.493877   -0.693402
     39          1           0       -0.977419    0.083898    3.157085
     40          1           0       -0.896445    0.702795   -0.858339
     41          1           0       -2.957798    1.583633   -1.895234
     42          1           0       -5.318547   -0.232474    1.208301
     43          1           0       -3.259425   -1.153720    2.239111
 ---------------------------------------------------------------------

 SCF Done:  E(UB3LYP) =  -1530.19172174     A.U. after   24 cycles

 Excitation energies and oscillator strengths:

 Excited State   1:  2.136-A      2.5491 eV  486.38 nm  f=0.0024  <S**2>=0.890
     94A -> 95A        0.85716
     94A -> 97A        0.10702
     93B -> 94B        0.42849
 This state for optimization and/or second-order correction.
 Total Energy, E(TD-HF/TD-DFT) =  -1530.09804363
 Copying the excited state density for this state as the 1-particle RhoCI density.

 Excited State   2:  2.128-A      2.7067 eV  458.07 nm  f=0.0803  <S**2>=0.882
     94A -> 95A       -0.42368
     94A -> 96A       -0.24089
     94A -> 97A        0.31060
     92B -> 94B       -0.34752
     93B -> 94B        0.69834

 Excited State   3:  2.333-A      2.7857 eV  445.08 nm  f=0.0032  <S**2>=1.110
     93A -> 95A       -0.16246
     94A -> 95A       -0.17580
     94A -> 96A       -0.15439
     92B -> 94B        0.85239
     92B -> 95B       -0.27543
     93B -> 94B        0.27720

 The electronic state is 2-A.
 Alpha  occ. eigenvalues -- -101.57532 -19.25181 -19.16128 -19.14710 -14.47845
 Alpha  occ. eigenvalues --  -14.46782 -10.33827 -10.28572 -10.28377 -10.28351
 Alpha  occ. eigenvalues --  -10.27483 -10.24253 -10.23967 -10.23959 -10.23851
 Alpha  occ. eigenvalues --  -10.23841 -10.22405 -10.22041 -10.21843 -10.21465
 Alpha  occ. eigenvalues --  -10.21249 -10.19727 -10.19570 -10.18095 -10.17952
 Alpha  occ. eigenvalues --   -9.49034  -7.25444  -7.24478  -7.24434  -1.17767
 Alpha  occ. eigenvalues --   -1.07038  -1.04664  -1.02449  -0.92147  -0.89403
 Alpha  occ. eigenvalues --   -0.87313  -0.86286  -0.81561  -0.80307  -0.79630
 Alpha  occ. eigenvalues --   -0.78157  -0.77389  -0.72074  -0.71213  -0.68858
 Alpha  occ. eigenvalues --   -0.67618  -0.65826  -0.64263  -0.63244  -0.61698
 Alpha  occ. eigenvalues --   -0.59649  -0.58204  -0.56972  -0.55737  -0.52980
 Alpha  occ. eigenvalues --   -0.51970  -0.50869  -0.50096  -0.49429  -0.48324
 Alpha  occ. eigenvalues --   -0.47507  -0.47227  -0.46823  -0.46228  -0.45868
 Alpha  occ. eigenvalues --   -0.44981  -0.44735  -0.44343  -0.43773  -0.43183
 Alpha  occ. eigenvalues --   -0.41971  -0.41568  -0.40723  -0.40251  -0.40131
 Alpha  occ. eigenvalues --   -0.39274  -0.38721  -0.38635  -0.37672  -0.37216
 Alpha  occ. eigenvalues --   -0.36293  -0.35386  -0.34123  -0.33704  -0.33320
 Alpha  occ. eigenvalues --   -0.32996  -0.31418  -0.30629  -0.30091  -0.28812
 Alpha  occ. eigenvalues --   -0.27722  -0.26480  -0.25667  -0.19224
 Alpha virt. eigenvalues --   -0.06754  -0.05639  -0.04949  -0.03779  -0.02044
 Alpha virt. eigenvalues --   -0.00783  -0.00289   0.00025   0.00473   0.00822
 Alpha virt. eigenvalues --    0.01616   0.01951   0.02186   0.02482   0.02705

  Beta  occ. eigenvalues -- -101.57527 -19.25059 -19.15876 -19.14673 -14.47763
  Beta  occ. eigenvalues --  -14.46204 -10.33830 -10.28581 -10.28426 -10.28255
  Beta  occ. eigenvalues --  -10.26881 -10.24339 -10.23922 -10.23914 -10.23842
  Beta  occ. eigenvalues --  -10.23840 -10.22305 -10.21943 -10.21875 -10.21379
  Beta  occ. eigenvalues --  -10.21285 -10.19721 -10.19562 -10.18095 -10.17952
  Beta  occ. eigenvalues --   -9.49029  -7.25446  -7.24454  -7.24430  -1.17445
  Beta  occ. eigenvalues --   -1.06553  -1.04597  -1.01648  -0.92020  -0.89071
  Beta  occ. eigenvalues --   -0.87206  -0.85863  -0.81529  -0.79979  -0.79526
  Beta  occ. eigenvalues --   -0.78034  -0.77246  -0.72051  -0.70521  -0.68857
  Beta  occ. eigenvalues --   -0.67440  -0.65638  -0.64047  -0.63039  -0.61548
  Beta  occ. eigenvalues --   -0.59379  -0.58059  -0.56575  -0.55596  -0.52843
  Beta  occ. eigenvalues --   -0.51810  -0.50654  -0.49598  -0.49254  -0.48239
  Beta  occ. eigenvalues --   -0.47234  -0.47126  -0.46671  -0.46142  -0.45494
  Beta  occ. eigenvalues --   -0.44665  -0.44498  -0.44163  -0.43675  -0.42852
  Beta  occ. eigenvalues --   -0.41732  -0.40759  -0.40449  -0.40034  -0.39839
  Beta  occ. eigenvalues --   -0.39172  -0.38631  -0.38243  -0.37368  -0.37040
  Beta  occ. eigenvalues --   -0.36164  -0.34651  -0.34106  -0.33688  -0.33254
  Beta  occ. eigenvalues --   -0.32922  -0.30712  -0.29952  -0.29450  -0.28287
  Beta  occ. eigenvalues --   -0.27472  -0.25588  -0.25513
  Beta virt. eigenvalues --   -0.12226  -0.06508  -0.05418  -0.04301  -0.03294
  Beta virt. eigenvalues --   -0.01965  -0.00678  -0.00232   0.00049   0.00510
  Beta virt. eigenvalues --    0.01005   0.01636   0.02011   0.02266   0.02568

 Mulliken charges and spin densities:
               1          2
     1  C   -0.541981  -0.000429
     2  C    0.121825   0.003065
     3  C   -0.574804   0.000399
     4  C   -0.019818   0.024116
     5  C   -0.470042  -0.001673
     6  O   -0.337690   0.013225
     7  C    0.342879   0.041632
     8  C    0.270098  -0.044673
     9  C   -0.363572   0.081333
    10  C   -0.403664  -0.047647
    11  C    0.022345   0.083222
    12  C    0.305794  -0.084006
    13  C   -0.643803   0.473241
    14  C    0.763427  -0.019412
    15  O   -0.418252   0.093330
    16  O   -0.049987   0.028858
    17  N   -0.497698   0.053827
    18  N    0.368750   0.193650
    19  C   -1.239803  -0.079876
    20  C    0.555173   0.099167
    21  C   -0.852252  -0.051885
    22  C    0.231348   0.087551
    23  Cl   0.260872   0.007246
    24  C   -0.238249  -0.042217
    25  C    0.556918   0.079725
    26  H    0.145254   0.000021
    27  H    0.138180   0.000083
    28  H    0.146145   0.000000
    29  H    0.164399   0.000497
    30  H    0.151902  -0.000022
    31  H    0.144227   0.000013
    32  H    0.134056   0.000016
    33  H    0.186781   0.001011
    34  H    0.138367  -0.001855
    35  H    0.159152   0.001615
    36  H    0.135236  -0.003564
    37  H    0.134465   0.002493
    38  H    0.127717  -0.003811
    39  H    0.334276   0.016685
    40  H    0.140532  -0.004943
    41  H    0.155030   0.001934
    42  H    0.153937   0.001684
    43  H    0.162529  -0.003624
 Sum of Mulliken charges =  -0.00000   1.00000

 Dipole moment (field-independent basis, Debye):
    X=             -5.6381    Y=              1.6059    Z=             -1.4061  Tot=              6.0286
 Quadrupole moment (field-independent basis, Debye-Ang):
   XX=           -178.2009   YY=           -154.1780   ZZ=           -152.0426
   XY=             11.4716   XZ=            -11.5434   YZ=             10.1911

 Normal termination of Gaussian 16 at Tue Oct  7 12:17:18 2025.
