 Gaussian 16, Revision C.02,
 Gaussian 16:  ES64L-G16RevC.02  7-Dec-2021

 ----------------------------------------------------------
 # td=(50-50,nstates=3) b3lyp/6-31+g(d,p) geom=connectivity
 ----------------------------------------------------------

 -------------------
 Title Card Required
 -------------------
 Symbolic Z-matrix:
 Charge =  0 Multiplicity = 1

                         Standard orientation:
 ---------------------------------------------------------------------
 Center     Atomic      Atomic             Coordinates (Angstroms)
 Number     Number       Type             X           Y           Z
 ---------------------------------------------------------------------
      1          6           0       -5.856513    0.511490    1.032096
      2          6           0       -5.385697    0.048966   -0.340407
      3          8           0       -4.209357   -0.783826   -0.264137
      4          6           0       -2.976837   -0.256085   -0.162570
      5          6           0       -2.684108    1.074383   -0.118146
      6          6           0       -1.333954    1.589995   -0.036252
      7          6           0       -1.108216    2.956016   -0.010512
      8          6           0        0.216060    3.687556    0.055795
      9          6           0       -2.248153    3.817854   -0.053653
     10          7           0       -3.154169    4.552579   -0.083809
     11          6           0       -0.267505    0.582573    0.011305
     12          8           0        0.991749    1.063217    0.100329
     13          6           0        2.097448    0.145382    0.117617
     14          6           0        3.371838    0.982249    0.236444
     15          7           0        4.549292    0.138029    0.265394
     16          6           0        5.113948   -0.415357    1.497048
     17          6           0        6.230848   -1.349198    0.981530
     18          6           0        6.625075   -0.744673   -0.377331
     19          6           0        5.390115    0.033161   -0.820998
     20          8           0        5.169968    0.511986   -1.925731
     21          6           0       -0.560667   -0.751626   -0.028119
     22          6           0       -1.904766   -1.250957   -0.109270
     23          6           0       -2.138019   -2.624974   -0.129171
     24          6           0       -3.406431   -3.276975   -0.205806
     25          7           0       -4.377345   -3.919177   -0.262809
     26          6           0       -1.028470   -3.524939   -0.058024
     27          7           0       -0.108008   -4.237410    0.006177
     28          1           0       -6.787632    1.077537    0.922181
     29          1           0       -6.051907   -0.350603    1.675941
     30          1           0       -5.126378    1.158061    1.526379
     31          1           0       -5.195334    0.886606   -1.021192
     32          1           0       -6.127789   -0.604041   -0.804196
     33          1           0       -3.485787    1.799419   -0.147506
     34          1           0        0.760476    3.437349    0.970861
     35          1           0        0.859702    3.417771   -0.785799
     36          1           0        0.046354    4.765181    0.035103
     37          1           0        1.991394   -0.539403    0.968004
     38          1           0        2.111276   -0.436215   -0.810987
     39          1           0        3.456641    1.642098   -0.631495
     40          1           0        3.332359    1.596198    1.144475
     41          1           0        4.354773   -0.952269    2.075242
     42          1           0        5.511749    0.391435    2.131851
     43          1           0        7.062847   -1.416578    1.686242
     44          1           0        5.828496   -2.357393    0.841322
     45          1           0        6.905051   -1.480637   -1.133979
     46          1           0        7.454374   -0.031277   -0.292504
     47          1           0        0.236109   -1.481448    0.002239
 ---------------------------------------------------------------------

 SCF Done:  E(RB3LYP) =  -1218.84019406     A.U. after   16 cycles

 Excitation energies and oscillator strengths:

 Excited State   1:      Triplet-A      0.9218 eV 1344.98 nm  f=0.0000  <S**2>=2.000
      96 -> 97         0.74341
      96 <- 97         0.25831
 This state for optimization and/or second-order correction.
 Total Energy, E(TD-HF/TD-DFT) =  -1218.80631735
 Copying the excited state density for this state as the 1-particle RhoCI density.

 Excited State   2:      Triplet-A      2.0022 eV  619.24 nm  f=0.0000  <S**2>=2.000
      95 -> 97         0.69613

 Excited State   3:      Singlet-A      2.6327 eV  470.94 nm  f=0.0418  <S**2>=0.000
      95 -> 97         0.65439
      96 -> 97         0.25521

 Excited State   4:      Singlet-A      2.9968 eV  413.72 nm  f=0.8017  <S**2>=0.000
      95 -> 97        -0.25540
      96 -> 97         0.66407
      96 <- 97        -0.14365

 Excited State   5:      Triplet-A      3.0658 eV  404.41 nm  f=0.0000  <S**2>=2.000
      93 -> 97         0.12885
      94 -> 97         0.69408

 Excited State   6:      Singlet-A      3.0681 eV  404.11 nm  f=0.0076  <S**2>=0.000
      93 -> 97         0.12612
      94 -> 97         0.69303

 The electronic state is 1-A.
 Alpha  occ. eigenvalues --  -19.23670 -19.21928 -19.13928 -14.39215 -14.36668
 Alpha  occ. eigenvalues --  -14.36195 -14.35018 -10.31102 -10.30574 -10.30177
 Alpha  occ. eigenvalues --  -10.28332 -10.28247 -10.27690 -10.27519 -10.27089
 Alpha  occ. eigenvalues --  -10.26660 -10.25656 -10.25642 -10.25589 -10.25565
 Alpha  occ. eigenvalues --  -10.24793 -10.23364 -10.23101 -10.22257 -10.22132
 Alpha  occ. eigenvalues --  -10.21623 -10.20409  -1.12263  -1.10714  -1.05665
 Alpha  occ. eigenvalues --   -0.97244  -0.93721  -0.93510  -0.91557  -0.90722
 Alpha  occ. eigenvalues --   -0.86888  -0.84101  -0.82133  -0.80969  -0.78765
 Alpha  occ. eigenvalues --   -0.77228  -0.74764  -0.74167  -0.70543  -0.69563
 Alpha  occ. eigenvalues --   -0.67069  -0.65981  -0.63510  -0.62634  -0.59974
 Alpha  occ. eigenvalues --   -0.58725  -0.56874  -0.55854  -0.54493  -0.53654
 Alpha  occ. eigenvalues --   -0.52754  -0.52110  -0.51127  -0.50202  -0.49144
 Alpha  occ. eigenvalues --   -0.48327  -0.47615  -0.47034  -0.46051  -0.45655
 Alpha  occ. eigenvalues --   -0.45035  -0.44418  -0.43943  -0.43689  -0.42772
 Alpha  occ. eigenvalues --   -0.42290  -0.41658  -0.41444  -0.41050  -0.40441
 Alpha  occ. eigenvalues --   -0.39924  -0.39413  -0.38829  -0.38683  -0.38506
 Alpha  occ. eigenvalues --   -0.38294  -0.37846  -0.37672  -0.37283  -0.36872
 Alpha  occ. eigenvalues --   -0.35611  -0.35538  -0.35426  -0.35330  -0.33784
 Alpha  occ. eigenvalues --   -0.33080  -0.32469  -0.27353  -0.26995  -0.26317
 Alpha  occ. eigenvalues --   -0.23947
 Alpha virt. eigenvalues --   -0.14163  -0.04759  -0.02260  -0.02046  -0.01496
 Alpha virt. eigenvalues --   -0.01139  -0.00543  -0.00225   0.00101   0.00576
 Alpha virt. eigenvalues --    0.00821   0.00993   0.01581   0.01758   0.02108

 Mulliken charges:
               1
     1  C   -0.392399
     2  C   -0.010246
     3  O   -0.297045
     4  C   -0.577180
     5  C   -0.750055
     6  C    0.151629
     7  C    1.679678
     8  C   -0.525982
     9  C   -0.355363
    10  N   -0.491158
    11  C    0.178597
    12  O   -0.380487
    13  C    0.594269
    14  C   -1.118576
    15  N    0.066673
    16  C   -0.102903
    17  C   -0.311333
    18  C   -0.263870
    19  C    0.418801
    20  O   -0.499632
    21  C   -0.231941
    22  C   -0.051091
    23  C    1.635576
    24  C   -0.110863
    25  N   -0.514757
    26  C   -0.492534
    27  N   -0.487284
    28  H    0.158929
    29  H    0.171308
    30  H    0.158522
    31  H    0.136325
    32  H    0.164013
    33  H    0.141284
    34  H    0.179986
    35  H    0.186709
    36  H    0.165745
    37  H    0.143934
    38  H    0.172650
    39  H    0.195681
    40  H    0.150196
    41  H    0.144905
    42  H    0.146228
    43  H    0.153071
    44  H    0.167063
    45  H    0.178094
    46  H    0.175445
    47  H    0.149388
 Sum of Mulliken charges =  -0.00000

 Dipole moment (field-independent basis, Debye):
    X=              4.4754    Y=              3.8193    Z=              4.1787  Tot=              7.2165
 Quadrupole moment (field-independent basis, Debye-Ang):
   XX=           -147.4663   YY=           -204.7310   ZZ=           -164.3709
   XY=            -10.9647   XZ=             19.2037   YZ=              1.6066

 Normal termination of Gaussian 16 at Wed Aug 27 08:40:13 2025.
