 Gaussian 16, Revision C.02,
 Gaussian 16:  ES64L-G16RevC.02  7-Dec-2021

 ----------------------------------------------------------
 # td=(50-50,nstates=3) b3lyp/6-31+g(d,p) geom=connectivity
 ----------------------------------------------------------

 -------------------
 Title Card Required
 -------------------
 Symbolic Z-matrix:
 Charge =  0 Multiplicity = 1

                         Standard orientation:
 ---------------------------------------------------------------------
 Center     Atomic      Atomic             Coordinates (Angstroms)
 Number     Number       Type             X           Y           Z
 ---------------------------------------------------------------------
      1          6           0       -2.147023   -1.007840    0.000121
      2          6           0       -0.656223   -1.143445    0.000045
      3          6           0        0.215419   -0.104900   -0.000017
      4          6           0        1.636140   -0.320227   -0.000014
      5          7           0        2.784926   -0.501223    0.000004
      6          6           0       -0.242623    1.257392    0.000063
      7          7           0       -0.641521    2.349953   -0.000261
      8          1           0       -2.630741   -1.985738   -0.000359
      9          1           0       -2.490578   -0.450204    0.879564
     10          1           0       -2.490638   -0.449266   -0.878698
     11          1           0       -0.226015   -2.141783    0.000110
 ---------------------------------------------------------------------

 SCF Done:  E(RB3LYP) =  -302.403144999     A.U. after   14 cycles

 Excitation energies and oscillator strengths:

 Excited State   1:      Triplet-A      2.8653 eV  432.71 nm  f=0.0000  <S**2>=2.000
      24 -> 25         0.70413
      24 <- 25         0.13003
 This state for optimization and/or second-order correction.
 Total Energy, E(TD-HF/TD-DFT) =  -302.297847942
 Copying the excited state density for this state as the 1-particle RhoCI density.

 Excited State   2:      Triplet-A      5.1634 eV  240.12 nm  f=0.0000  <S**2>=2.000
      18 -> 30         0.13847
      22 -> 25         0.57600
      23 -> 26        -0.17374
      24 -> 30        -0.28939

 Excited State   3:      Singlet-A      5.3703 eV  230.87 nm  f=0.3141  <S**2>=0.000
      24 -> 25         0.69252

 Excited State   4:      Triplet-A      5.4612 eV  227.03 nm  f=0.0000  <S**2>=2.000
      21 -> 30         0.13220
      22 -> 26        -0.11288
      23 -> 25         0.66351

 Excited State   5:      Singlet-A      5.7681 eV  214.95 nm  f=0.0000  <S**2>=0.000
      23 -> 25         0.69935

 Excited State   6:      Singlet-A      6.0076 eV  206.38 nm  f=0.0005  <S**2>=0.000
      21 -> 25         0.63759
      24 -> 26        -0.26976

 The electronic state is 1-A.
 Alpha  occ. eigenvalues --  -14.37640 -14.37215 -10.29928 -10.28010 -10.26791
 Alpha  occ. eigenvalues --  -10.26515 -10.23477  -0.94853  -0.93418  -0.87651
 Alpha  occ. eigenvalues --   -0.78014  -0.67129  -0.62022  -0.53109  -0.47090
 Alpha  occ. eigenvalues --   -0.45715  -0.42459  -0.42296  -0.39859  -0.39128
 Alpha  occ. eigenvalues --   -0.37375  -0.37152  -0.36162  -0.30364
 Alpha virt. eigenvalues --   -0.10585  -0.03016  -0.01356   0.00897   0.01126
 Alpha virt. eigenvalues --    0.01234   0.02905   0.02942   0.04776   0.05527
 Alpha virt. eigenvalues --    0.06049   0.06350   0.07916   0.08236   0.09439

 Mulliken charges:
               1
     1  C   -0.509518
     2  C    0.294921
     3  C    0.898915
     4  C   -0.104844
     5  N   -0.478852
     6  C   -0.350203
     7  N   -0.485334
     8  H    0.171152
     9  H    0.197398
    10  H    0.197394
    11  H    0.168970
 Sum of Mulliken charges =  -0.00000

 Dipole moment (field-independent basis, Debye):
    X=             -3.8560    Y=             -3.6329    Z=              0.0007  Tot=              5.2978
 Quadrupole moment (field-independent basis, Debye-Ang):
   XX=            -48.3865   YY=            -45.7699   ZZ=            -40.5726
   XY=              6.4361   XZ=             -0.0007   YZ=              0.0007

 Normal termination of Gaussian 16 at Wed Aug 27 08:39:53 2025.
