 Gaussian 16, Revision C.02,
 Gaussian 16:  ES64L-G16RevC.02  7-Dec-2021

 ----------------------------------------------------------
 # td=(50-50,nstates=3) b3lyp/6-31+g(d,p) geom=connectivity
 ----------------------------------------------------------

 -------------------
 Title Card Required
 -------------------
 Symbolic Z-matrix:
 Charge =  0 Multiplicity = 1

                         Standard orientation:
 ---------------------------------------------------------------------
 Center     Atomic      Atomic             Coordinates (Angstroms)
 Number     Number       Type             X           Y           Z
 ---------------------------------------------------------------------
      1          6           0       -3.067309    1.409144   -0.717990
      2          6           0       -1.977160    2.145135   -0.421599
      3          6           0       -2.143900    3.517626   -0.010828
      4          7           0       -2.307750    4.617649    0.328617
      5          6           0       -0.601271    1.629761   -0.481401
      6          6           0       -0.090370    0.396061   -0.322621
      7          6           0       -0.784682   -0.875839   -0.009950
      8          6           0       -1.208555   -1.193088    1.298904
      9          6           0       -0.971227   -0.201269    2.427731
     10          6           0       -1.285897   -0.694693    3.843330
     11          6           0       -1.837215   -2.427814    1.520786
     12          6           0       -2.029715   -3.332200    0.478142
     13          6           0       -1.597409   -3.037093   -0.815745
     14          6           0       -0.971536   -1.809232   -1.053185
     15          8           0       -0.509218   -1.415015   -2.283144
     16          6           0       -0.666601   -2.298184   -3.389590
     17          6           0        1.401004    0.490966   -0.551814
     18          8           0        2.131498    0.037797    0.569405
     19          6           0        3.516864   -0.321091    0.318222
     20          6           0        4.236528   -0.176375    1.652621
     21          6           0        3.603262   -1.738047   -0.249578
     22          6           0        1.599042    2.001591   -0.795290
     23          8           0        2.612601    2.614643   -0.989962
     24          8           0        0.363068    2.612309   -0.751324
     25          1           0       -2.973981    0.382128   -1.049004
     26          1           0       -4.061474    1.831423   -0.627075
     27          1           0        0.076189    0.118214    2.381676
     28          1           0       -1.562867    0.702740    2.231984
     29          1           0       -1.039795    0.086737    4.568920
     30          1           0       -2.346655   -0.936321    3.971067
     31          1           0       -0.701508   -1.584244    4.102690
     32          1           0       -2.171357   -2.691817    2.517227
     33          1           0       -2.516400   -4.283899    0.671636
     34          1           0       -1.747107   -3.754320   -1.613308
     35          1           0       -0.233814   -1.779657   -4.245909
     36          1           0       -0.132985   -3.242347   -3.226155
     37          1           0       -1.725320   -2.505166   -3.587512
     38          1           0        1.685653   -0.053105   -1.464602
     39          1           0        3.934872    0.399397   -0.395427
     40          1           0        5.295235   -0.433050    1.542898
     41          1           0        4.163296    0.851289    2.018556
     42          1           0        3.794593   -0.844696    2.399615
     43          1           0        4.646601   -1.999405   -0.457656
     44          1           0        3.045769   -1.836586   -1.187102
     45          1           0        3.198604   -2.460878    0.466499
 ---------------------------------------------------------------------

 SCF Done:  E(RB3LYP) =  -1092.31841783     A.U. after   17 cycles

 Excitation energies and oscillator strengths:

 Excited State   1:      Triplet-A      2.3777 eV  521.44 nm  f=0.0000  <S**2>=2.000
      83 -> 88         0.17874
      84 -> 88         0.11762
      85 -> 88         0.30950
      86 -> 88         0.47285
      87 -> 88         0.33666
 This state for optimization and/or second-order correction.
 Total Energy, E(TD-HF/TD-DFT) =  -1092.23103790
 Copying the excited state density for this state as the 1-particle RhoCI density.

 Excited State   2:      Singlet-A      3.4038 eV  364.26 nm  f=0.0094  <S**2>=0.000
      87 -> 88         0.69837

 Excited State   3:      Triplet-A      3.4168 eV  362.86 nm  f=0.0000  <S**2>=2.000
      83 -> 88        -0.10751
      85 -> 88        -0.22155
      86 -> 88        -0.21250
      87 -> 88         0.57198
      87 -> 89         0.12559
      87 -> 90        -0.12926

 Excited State   4:      Triplet-A      3.5795 eV  346.37 nm  f=0.0000  <S**2>=2.000
      83 -> 88        -0.18569
      85 -> 90         0.26253
      86 -> 88         0.25299
      86 -> 89         0.16388
      86 -> 90        -0.15201
      86 -> 91        -0.14219
      87 -> 88        -0.21955
      87 -> 89         0.21770
      87 -> 90        -0.21607
      87 -> 91         0.23444
      87 -> 92        -0.12033

 Excited State   5:      Singlet-A      3.7610 eV  329.66 nm  f=0.0194  <S**2>=0.000
      85 -> 88        -0.18745
      86 -> 88         0.67304

 Excited State   6:      Singlet-A      4.1277 eV  300.37 nm  f=0.0076  <S**2>=0.000
      84 -> 88         0.61416
      84 -> 89         0.11705
      85 -> 88        -0.30983

 The electronic state is 1-A.
 Alpha  occ. eigenvalues --  -19.22752 -19.20759 -19.17634 -19.17011 -14.35344
 Alpha  occ. eigenvalues --  -10.33818 -10.28778 -10.27658 -10.27256 -10.27056
 Alpha  occ. eigenvalues --  -10.26267 -10.25102 -10.24492 -10.23955 -10.22710
 Alpha  occ. eigenvalues --  -10.21948 -10.21892 -10.21190 -10.20839 -10.19915
 Alpha  occ. eigenvalues --  -10.19718 -10.18929 -10.18634 -10.18414  -1.13770
 Alpha  occ. eigenvalues --   -1.08927  -1.06010  -1.05156  -0.92091  -0.88289
 Alpha  occ. eigenvalues --   -0.85535  -0.83057  -0.80033  -0.79066  -0.76828
 Alpha  occ. eigenvalues --   -0.73980  -0.73492  -0.71704  -0.70105  -0.67337
 Alpha  occ. eigenvalues --   -0.65158  -0.63740  -0.61877  -0.60039  -0.58857
 Alpha  occ. eigenvalues --   -0.57774  -0.56059  -0.53727  -0.52991  -0.50742
 Alpha  occ. eigenvalues --   -0.50317  -0.49310  -0.49079  -0.48262  -0.46996
 Alpha  occ. eigenvalues --   -0.46865  -0.46129  -0.45818  -0.45065  -0.44523
 Alpha  occ. eigenvalues --   -0.43887  -0.43494  -0.42674  -0.41119  -0.40378
 Alpha  occ. eigenvalues --   -0.40135  -0.39814  -0.39416  -0.39109  -0.39094
 Alpha  occ. eigenvalues --   -0.37447  -0.37236  -0.36697  -0.36522  -0.36455
 Alpha  occ. eigenvalues --   -0.36259  -0.36077  -0.34587  -0.34303  -0.33673
 Alpha  occ. eigenvalues --   -0.33290  -0.31585  -0.30818  -0.26997  -0.26613
 Alpha  occ. eigenvalues --   -0.25130  -0.24069
 Alpha virt. eigenvalues --   -0.08960  -0.03883  -0.03141  -0.01407  -0.01135
 Alpha virt. eigenvalues --    0.00084   0.00152   0.00373   0.01367   0.01439
 Alpha virt. eigenvalues --    0.01843   0.02039   0.02401   0.02836   0.02890

 Mulliken charges:
               1
     1  C   -0.425766
     2  C    0.402653
     3  C   -0.054028
     4  N   -0.488017
     5  C    0.596666
     6  C   -0.464850
     7  C   -0.214701
     8  C    0.508500
     9  C    0.121587
    10  C   -0.847280
    11  C   -0.357165
    12  C   -0.729774
    13  C    0.481587
    14  C   -0.153724
    15  O   -0.261825
    16  C   -0.068699
    17  C   -0.017711
    18  O   -0.180816
    19  C    0.214020
    20  C   -0.535168
    21  C   -0.448345
    22  C    0.437916
    23  O   -0.447056
    24  O   -0.253953
    25  H    0.171889
    26  H    0.167095
    27  H    0.182898
    28  H    0.163203
    29  H    0.152182
    30  H    0.148529
    31  H    0.155335
    32  H    0.123956
    33  H    0.127667
    34  H    0.123871
    35  H    0.150975
    36  H    0.147908
    37  H    0.146551
    38  H    0.168507
    39  H    0.148753
    40  H    0.145158
    41  H    0.163915
    42  H    0.154240
    43  H    0.150296
    44  H    0.136094
    45  H    0.156929
 Sum of Mulliken charges =  -0.00000

 Dipole moment (field-independent basis, Debye):
    X=             -1.2076    Y=             -8.2648    Z=             -1.7517  Tot=              8.5342
 Quadrupole moment (field-independent basis, Debye-Ang):
   XX=           -137.2113   YY=           -170.0231   ZZ=           -132.0945
   XY=              2.5224   XZ=              4.6005   YZ=              6.1829

 Normal termination of Gaussian 16 at Wed Aug 27 08:49:41 2025.
