 Gaussian 16, Revision C.02,
 Gaussian 16:  ES64L-G16RevC.02  7-Dec-2021

 ----------------------------------------------------------
 # td=(50-50,nstates=3) b3lyp/6-31+g(d,p) geom=connectivity
 ----------------------------------------------------------

 -------------------
 Title Card Required
 -------------------
 Symbolic Z-matrix:
 Charge =  0 Multiplicity = 1

                         Standard orientation:
 ---------------------------------------------------------------------
 Center     Atomic      Atomic             Coordinates (Angstroms)
 Number     Number       Type             X           Y           Z
 ---------------------------------------------------------------------
      1          6           0        8.576023    0.948417   -1.653249
      2         14           0        7.438374   -0.143246   -0.612376
      3          6           0        7.509143   -1.932660   -1.214200
      4          6           0        7.913879   -0.041477    1.213039
      5          6           0        5.706782    0.470675   -0.800616
      6          6           0        4.561721    0.871342   -0.915618
      7          6           0        3.187154    1.368236   -1.067293
      8          6           0        2.209745    0.673581   -0.217710
      9          6           0        1.391058    0.107593    0.485512
     10         14           0        0.163969   -0.747124    1.556880
     11          6           0       -0.172573   -2.461791    0.827729
     12          6           0        0.849321   -0.910534    3.306205
     13          6           0       -1.403060    0.333400    1.618546
     14          6           0       -2.077168    0.693712    0.283522
     15          7           0       -2.808888   -0.412650   -0.352626
     16          6           0       -4.155941   -0.132854   -0.415571
     17          6           0       -5.194875   -0.966781   -0.858232
     18          6           0       -6.478290   -0.427975   -0.864572
     19         17           0       -7.804484   -1.441841   -1.413813
     20          6           0       -6.768963    0.888148   -0.457223
     21          6           0       -5.727540    1.697239   -0.014052
     22          6           0       -4.427372    1.185234    0.010500
     23          6           0       -3.168762    1.780682    0.464696
     24          8           0       -2.960191    2.897762    0.913564
     25          1           0        8.528446    1.993089   -1.327137
     26          1           0        9.617424    0.615750   -1.568575
     27          1           0        8.296607    0.914899   -2.711921
     28          1           0        6.834028   -2.571147   -0.634140
     29          1           0        8.523951   -2.336045   -1.115054
     30          1           0        7.217868   -2.007335   -2.267544
     31          1           0        7.858021    0.989513    1.578848
     32          1           0        7.245286   -0.651828    1.829752
     33          1           0        8.938390   -0.400066    1.368539
     34          1           0        3.161066    2.443237   -0.839326
     35          1           0        2.880705    1.276097   -2.118917
     36          1           0       -0.976382   -2.976488    1.367907
     37          1           0        0.726178   -3.083982    0.902707
     38          1           0       -0.436360   -2.413988   -0.234903
     39          1           0        1.779360   -1.488987    3.308145
     40          1           0        1.065211    0.072121    3.738588
     41          1           0        0.132859   -1.419541    3.961597
     42          1           0       -2.143323   -0.130003    2.286266
     43          1           0       -1.112656    1.281099    2.092317
     44          1           0       -1.327294    1.094619   -0.411537
     45          1           0       -2.485162   -1.363786   -0.258555
     46          1           0       -5.015831   -1.982967   -1.191385
     47          1           0       -7.789865    1.249297   -0.490522
     48          1           0       -5.913032    2.714263    0.318024
 ---------------------------------------------------------------------

 SCF Done:  E(RB3LYP) =  -1907.69179849     A.U. after   17 cycles

 Excitation energies and oscillator strengths:

 Excited State   1:      Triplet-A      2.7907 eV  444.27 nm  f=0.0000  <S**2>=2.000
      96 ->100         0.10621
      99 ->100         0.69137
 This state for optimization and/or second-order correction.
 Total Energy, E(TD-HF/TD-DFT) =  -1907.58924109
 Copying the excited state density for this state as the 1-particle RhoCI density.

 Excited State   2:      Triplet-A      3.2642 eV  379.83 nm  f=0.0000  <S**2>=2.000
      96 ->100         0.13511
      98 ->100         0.65916

 Excited State   3:      Triplet-A      3.3829 eV  366.50 nm  f=0.0000  <S**2>=2.000
      92 ->100         0.11494
      96 ->100         0.54726
      98 ->100        -0.14860
      99 ->100        -0.12722
      99 ->101         0.22203
      99 ->102        -0.20471

 Excited State   4:      Singlet-A      3.5191 eV  352.32 nm  f=0.0418  <S**2>=0.000
      98 ->100        -0.34838
      99 ->100         0.60266

 Excited State   5:      Singlet-A      3.7416 eV  331.37 nm  f=0.0298  <S**2>=0.000
      98 ->100         0.59091
      99 ->100         0.34414

 Excited State   6:      Singlet-A      4.8229 eV  257.08 nm  f=0.1095  <S**2>=0.000
      96 ->100         0.58685
      99 ->101         0.30139
      99 ->102        -0.19681

 The electronic state is 1-A.
 Alpha  occ. eigenvalues -- -101.56361 -66.15244 -66.14053 -19.14621 -14.37537
 Alpha  occ. eigenvalues --  -10.28085 -10.27609 -10.26013 -10.25157 -10.24671
 Alpha  occ. eigenvalues --  -10.22078 -10.21718 -10.21113 -10.21068 -10.20459
 Alpha  occ. eigenvalues --  -10.20317 -10.19308 -10.18507 -10.17868 -10.17826
 Alpha  occ. eigenvalues --  -10.17324 -10.16992 -10.16983 -10.16952  -9.47873
 Alpha  occ. eigenvalues --   -7.24277  -7.23318  -7.23271  -5.29510  -5.28342
 Alpha  occ. eigenvalues --   -3.65492  -3.65359  -3.65340  -3.64335  -3.64173
 Alpha  occ. eigenvalues --   -3.64172  -1.04321  -0.97660  -0.90093  -0.84404
 Alpha  occ. eigenvalues --   -0.82547  -0.79061  -0.76350  -0.75439  -0.74715
 Alpha  occ. eigenvalues --   -0.72624  -0.71858  -0.70047  -0.69597  -0.68417
 Alpha  occ. eigenvalues --   -0.68393  -0.67695  -0.63821  -0.60632  -0.57451
 Alpha  occ. eigenvalues --   -0.54825  -0.54004  -0.52515  -0.50536  -0.49922
 Alpha  occ. eigenvalues --   -0.48982  -0.48120  -0.46846  -0.46617  -0.46395
 Alpha  occ. eigenvalues --   -0.45856  -0.43789  -0.42887  -0.42698  -0.42546
 Alpha  occ. eigenvalues --   -0.42426  -0.41507  -0.41282  -0.41257  -0.40971
 Alpha  occ. eigenvalues --   -0.40324  -0.40130  -0.39750  -0.39726  -0.39319
 Alpha  occ. eigenvalues --   -0.38636  -0.38021  -0.37382  -0.36519  -0.35687
 Alpha  occ. eigenvalues --   -0.35669  -0.32990  -0.32525  -0.32443  -0.31698
 Alpha  occ. eigenvalues --   -0.31659  -0.31198  -0.28491  -0.28264  -0.27008
 Alpha  occ. eigenvalues --   -0.26634  -0.26606  -0.25486  -0.22643
 Alpha virt. eigenvalues --   -0.07227  -0.02046  -0.01721  -0.01385  -0.01029
 Alpha virt. eigenvalues --   -0.00536   0.00261   0.00503   0.00636   0.00857
 Alpha virt. eigenvalues --    0.01159   0.01521   0.01972   0.02300   0.02434

 Mulliken charges:
               1
     1  C   -0.675717
     2  Si   1.214389
     3  C   -0.683041
     4  C   -0.681179
     5  C   -0.919745
     6  C    0.579719
     7  C   -0.771386
     8  C    0.442482
     9  C   -0.944354
    10  Si   1.373844
    11  C   -0.726411
    12  C   -0.665236
    13  C   -0.713198
    14  C   -0.053047
    15  N   -0.216097
    16  C   -1.933206
    17  C   -0.150108
    18  C    0.024393
    19  Cl   0.257334
    20  C   -0.310853
    21  C    0.498790
    22  C    1.060490
    23  C    0.315799
    24  O   -0.464138
    25  H    0.165817
    26  H    0.160500
    27  H    0.165528
    28  H    0.165435
    29  H    0.160318
    30  H    0.164608
    31  H    0.165331
    32  H    0.165668
    33  H    0.160209
    34  H    0.203270
    35  H    0.200729
    36  H    0.164142
    37  H    0.176812
    38  H    0.159582
    39  H    0.169560
    40  H    0.170683
    41  H    0.162241
    42  H    0.162471
    43  H    0.191806
    44  H    0.174892
    45  H    0.288619
    46  H    0.139165
    47  H    0.145248
    48  H    0.157842
 Sum of Mulliken charges =  -0.00000

 Dipole moment (field-independent basis, Debye):
    X=              2.4553    Y=             -2.7608    Z=              0.0087  Tot=              3.6946
 Quadrupole moment (field-independent basis, Debye-Ang):
   XX=           -167.6965   YY=           -171.5761   ZZ=           -166.6440
   XY=              2.9599   XZ=             -3.2354   YZ=             -6.4199

 Normal termination of Gaussian 16 at Tue Oct  7 12:11:24 2025.
