 Gaussian 16, Revision C.02,
 Gaussian 16:  ES64L-G16RevC.02  7-Dec-2021

 ----------------------------------------------------------
 # td=(50-50,nstates=3) b3lyp/6-31+g(d,p) geom=connectivity
 ----------------------------------------------------------

 -------------------
 Title Card Required
 -------------------
 Symbolic Z-matrix:
 Charge =  0 Multiplicity = 1

                         Standard orientation:
 ---------------------------------------------------------------------
 Center     Atomic      Atomic             Coordinates (Angstroms)
 Number     Number       Type             X           Y           Z
 ---------------------------------------------------------------------
      1          6           0        4.852641    2.050524    0.590369
      2          8           0        4.295502    0.744150    0.431196
      3          6           0        2.990001    0.607688    0.134985
      4          6           0        2.116518    1.639739   -0.032888
      5          6           0        0.719068    1.451207   -0.362964
      6          6           0       -0.100548    2.545495   -0.581446
      7          6           0       -1.561065    2.561984   -0.979504
      8          6           0        0.477249    3.844989   -0.431988
      9          7           0        0.912331    4.921326   -0.315759
     10          6           0        0.273737    0.056901   -0.462073
     11          8           0       -1.047669   -0.119508   -0.704805
     12          6           0       -1.553721   -1.450698   -0.881928
     13          6           0       -3.068101   -1.361644   -1.104798
     14          8           0       -3.540127   -1.805443   -2.143097
     15          6           0       -3.924123   -0.791925   -0.054347
     16          6           0       -5.299265   -0.664585   -0.135898
     17          6           0       -5.882442   -0.130240    1.039631
     18          6           0       -4.948522    0.141302    2.013568
     19         16           0       -3.345661   -0.239834    1.505549
     20          6           0        1.152207   -0.977217   -0.307973
     21          6           0        2.544015   -0.776845   -0.008829
     22          6           0        3.391653   -1.872422    0.137555
     23          6           0        4.787237   -1.837323    0.439619
     24          7           0        5.923273   -1.931652    0.681398
     25          6           0        2.864732   -3.193429   -0.015790
     26          7           0        2.411607   -4.259860   -0.142300
     27          1           0        4.758353    2.628782   -0.335531
     28          1           0        4.365826    2.582867    1.415159
     29          1           0        5.904549    1.887743    0.821895
     30          1           0        2.467987    2.657884    0.065687
     31          1           0       -1.733426    1.966761   -1.879656
     32          1           0       -2.190932    2.141840   -0.189942
     33          1           0       -1.881760    3.587398   -1.169734
     34          1           0       -1.109046   -1.915631   -1.766279
     35          1           0       -1.335264   -2.058904    0.006690
     36          1           0       -5.846328   -0.960875   -1.022890
     37          1           0       -6.944122    0.044353    1.167835
     38          1           0       -5.116185    0.550550    3.001129
     39          1           0        0.811184   -1.998715   -0.404690
 ---------------------------------------------------------------------

 SCF Done:  E(RB3LYP) =  -1519.89787259     A.U. after   17 cycles

 Excitation energies and oscillator strengths:

 Excited State   1:      Triplet-A      0.9196 eV 1348.22 nm  f=0.0000  <S**2>=2.000
      94 -> 95         0.74439
      94 <- 95         0.26104
 This state for optimization and/or second-order correction.
 Total Energy, E(TD-HF/TD-DFT) =  -1519.86407745
 Copying the excited state density for this state as the 1-particle RhoCI density.

 Excited State   2:      Triplet-A      2.0765 eV  597.08 nm  f=0.0000  <S**2>=2.000
      93 -> 95         0.69033

 Excited State   3:      Singlet-A      2.6979 eV  459.57 nm  f=0.0512  <S**2>=0.000
      93 -> 95         0.64716
      94 -> 95         0.26908

 Excited State   4:      Triplet-A      2.7173 eV  456.27 nm  f=0.0000  <S**2>=2.000
      92 -> 96         0.67557
      93 -> 96        -0.10871

 Excited State   5:      Singlet-A      3.0150 eV  411.23 nm  f=0.8403  <S**2>=0.000
      93 -> 95        -0.26895
      94 -> 95         0.65975
      94 <- 95        -0.14314

 Excited State   6:      Singlet-A      3.2162 eV  385.50 nm  f=0.0028  <S**2>=0.000
      92 -> 95         0.70490

 The electronic state is 1-A.
 Alpha  occ. eigenvalues --  -88.95625 -19.24514 -19.22702 -19.18051 -14.36965
 Alpha  occ. eigenvalues --  -14.36456 -14.35345 -10.32184 -10.31609 -10.30480
 Alpha  occ. eigenvalues --  -10.29273 -10.28654 -10.28058 -10.27925 -10.27028
 Alpha  occ. eigenvalues --  -10.26991 -10.26317 -10.25927 -10.25867 -10.25811
 Alpha  occ. eigenvalues --  -10.25066 -10.23930 -10.23906 -10.23576 -10.23569
 Alpha  occ. eigenvalues --  -10.22310  -8.01502  -5.97914  -5.97542  -5.97245
 Alpha  occ. eigenvalues --   -1.13085  -1.11516  -1.07750  -0.94028  -0.93792
 Alpha  occ. eigenvalues --   -0.92257  -0.91849  -0.91116  -0.87219  -0.82735
 Alpha  occ. eigenvalues --   -0.81796  -0.79111  -0.77732  -0.77079  -0.76677
 Alpha  occ. eigenvalues --   -0.72905  -0.70095  -0.67815  -0.65100  -0.63819
 Alpha  occ. eigenvalues --   -0.60857  -0.59983  -0.58860  -0.57547  -0.56270
 Alpha  occ. eigenvalues --   -0.55094  -0.54615  -0.52657  -0.52042  -0.50609
 Alpha  occ. eigenvalues --   -0.50165  -0.49004  -0.48157  -0.46979  -0.46479
 Alpha  occ. eigenvalues --   -0.45700  -0.44833  -0.44399  -0.43937  -0.43683
 Alpha  occ. eigenvalues --   -0.43348  -0.42105  -0.41908  -0.41362  -0.40080
 Alpha  occ. eigenvalues --   -0.39636  -0.39329  -0.39102  -0.38818  -0.38578
 Alpha  occ. eigenvalues --   -0.38471  -0.37993  -0.37705  -0.35959  -0.35712
 Alpha  occ. eigenvalues --   -0.35657  -0.34485  -0.33584  -0.32817  -0.29508
 Alpha  occ. eigenvalues --   -0.29410  -0.27960  -0.26923  -0.24338
 Alpha virt. eigenvalues --   -0.14518  -0.10495  -0.05125  -0.02733  -0.02489
 Alpha virt. eigenvalues --   -0.02154  -0.01834  -0.01659  -0.00581  -0.00440
 Alpha virt. eigenvalues --    0.00240   0.00452   0.00950   0.01407   0.01640

 Mulliken charges:
               1
     1  C   -0.123581
     2  O   -0.336249
     3  C   -0.447458
     4  C   -0.751089
     5  C    0.478104
     6  C    1.494278
     7  C   -0.517441
     8  C   -0.286517
     9  N   -0.495299
    10  C    0.016153
    11  O   -0.324670
    12  C    0.561191
    13  C   -0.178851
    14  O   -0.405451
    15  C   -0.274817
    16  C    0.228580
    17  C   -0.222414
    18  C   -0.116121
    19  S   -0.036153
    20  C   -0.315967
    21  C    0.202312
    22  C    1.289435
    23  C   -0.074505
    24  N   -0.519888
    25  C   -0.521890
    26  N   -0.481467
    27  H    0.156749
    28  H    0.155884
    29  H    0.170330
    30  H    0.148688
    31  H    0.184382
    32  H    0.186942
    33  H    0.166174
    34  H    0.181170
    35  H    0.165812
    36  H    0.170644
    37  H    0.149575
    38  H    0.172863
    39  H    0.150561
 Sum of Mulliken charges =  -0.00000

 Dipole moment (field-independent basis, Debye):
    X=             -6.4113    Y=              4.0611    Z=              2.0570  Tot=              7.8631
 Quadrupole moment (field-independent basis, Debye-Ang):
   XX=           -160.7321   YY=           -198.4135   ZZ=           -157.9180
   XY=             15.9827   XZ=            -14.4563   YZ=             -0.3421

 Normal termination of Gaussian 16 at Wed Aug 27 08:47:32 2025.
