 Gaussian 16, Revision C.02,
 Gaussian 16:  ES64L-G16RevC.02  7-Dec-2021

 ----------------------------------------------------------
 # td=(50-50,nstates=3) b3lyp/6-31+g(d,p) geom=connectivity
 ----------------------------------------------------------

 -------------------
 Title Card Required
 -------------------
 Symbolic Z-matrix:
 Charge =  0 Multiplicity = 1

                         Standard orientation:
 ---------------------------------------------------------------------
 Center     Atomic      Atomic             Coordinates (Angstroms)
 Number     Number       Type             X           Y           Z
 ---------------------------------------------------------------------
      1          6           0        3.205160    2.929284   -1.823514
      2          6           0        3.024763    1.860248   -1.011791
      3          6           0        4.089213    0.941619   -0.723084
      4          6           0        4.978802    0.146290   -0.460773
      5         14           0        6.322420   -1.057542   -0.063567
      6          6           0        7.986586   -0.205578   -0.333813
      7          6           0        6.131922   -1.586071    1.739634
      8          6           0        6.146655   -2.546510   -1.213022
      9          6           0        1.756456    1.589723   -0.395328
     10          6           0        0.688442    1.337963    0.141753
     11         14           0       -0.918987    0.957132    0.963082
     12          6           0       -0.597334   -0.201260    2.412487
     13          6           0       -1.724087    2.569129    1.511813
     14          6           0       -1.947140    0.100564   -0.405824
     15          6           0       -3.342099   -0.311444   -0.069740
     16          7           0       -3.847232   -0.217629    1.138405
     17          8           0       -5.154913   -0.715443    1.000160
     18          6           0       -5.292181   -1.050980   -0.293210
     19          6           0       -6.591799   -1.612008   -0.746170
     20         17           0       -7.827160   -0.306520   -1.019545
     21          7           0       -4.224739   -0.834248   -1.002105
     22          1           0        2.389315    3.612946   -2.029204
     23          1           0        4.169039    3.120245   -2.281507
     24          1           0        8.813318   -0.888800   -0.105602
     25          1           0        8.098495    0.123560   -1.372600
     26          1           0        8.089213    0.674726    0.309901
     27          1           0        6.910833   -2.306392    2.016835
     28          1           0        5.158638   -2.058013    1.912024
     29          1           0        6.211259   -0.726578    2.413938
     30          1           0        5.174939   -3.034527   -1.081377
     31          1           0        6.231856   -2.247699   -2.263361
     32          1           0        6.928055   -3.288045   -1.008078
     33          1           0       -1.536736   -0.457755    2.912252
     34          1           0        0.066354    0.273975    3.143006
     35          1           0       -0.117854   -1.128157    2.079698
     36          1           0       -1.080514    3.095931    2.224750
     37          1           0       -1.897244    3.236816    0.660932
     38          1           0       -2.685646    2.371049    1.996064
     39          1           0       -1.989819    0.764180   -1.278731
     40          1           0       -1.398455   -0.787044   -0.748169
     41          1           0       -6.449507   -2.126150   -1.694659
     42          1           0       -7.008934   -2.286828    0.001058
 ---------------------------------------------------------------------

 SCF Done:  E(RB3LYP) =  -1808.14423665     A.U. after   17 cycles

 Excitation energies and oscillator strengths:

 Excited State   1:      Triplet-A      2.4369 eV  508.77 nm  f=0.0000  <S**2>=2.000
      89 -> 90         0.69115
      89 <- 90         0.13685
 This state for optimization and/or second-order correction.
 Total Energy, E(TD-HF/TD-DFT) =  -1808.05468069
 Copying the excited state density for this state as the 1-particle RhoCI density.

 Excited State   2:      Triplet-A      4.0419 eV  306.75 nm  f=0.0000  <S**2>=2.000
      87 -> 90         0.58623
      88 -> 92         0.11429
      89 -> 97        -0.21488
      89 ->102         0.13611

 Excited State   3:      Triplet-A      4.1558 eV  298.34 nm  f=0.0000  <S**2>=2.000
      88 -> 90         0.67027

 Excited State   4:      Singlet-A      4.3864 eV  282.66 nm  f=0.0003  <S**2>=0.000
      88 -> 90         0.69256

 Excited State   5:      Singlet-A      4.4227 eV  280.34 nm  f=0.0001  <S**2>=0.000
      89 -> 91         0.69778

 Excited State   6:      Singlet-A      4.6311 eV  267.72 nm  f=0.2685  <S**2>=0.000
      89 -> 90         0.67528

 The electronic state is 1-A.
 Alpha  occ. eigenvalues -- -101.56198 -66.14942 -66.14134 -19.27018 -14.40971
 Alpha  occ. eigenvalues --  -14.36632 -10.32052 -10.28709 -10.28082 -10.25166
 Alpha  occ. eigenvalues --  -10.21474 -10.20531 -10.20222 -10.19921 -10.17988
 Alpha  occ. eigenvalues --  -10.17805 -10.17024 -10.17006 -10.16996 -10.16969
 Alpha  occ. eigenvalues --  -10.16935  -9.47727  -7.24183  -7.23128  -7.23103
 Alpha  occ. eigenvalues --   -5.29176  -5.28418  -3.65174  -3.65049  -3.64970
 Alpha  occ. eigenvalues --   -3.64417  -3.64247  -3.64246  -1.18623  -0.96168
 Alpha  occ. eigenvalues --   -0.90966  -0.86573  -0.84169  -0.75729  -0.74709
 Alpha  occ. eigenvalues --   -0.73827  -0.73423  -0.71616  -0.70612  -0.68487
 Alpha  occ. eigenvalues --   -0.68442  -0.68409  -0.64275  -0.64023  -0.60930
 Alpha  occ. eigenvalues --   -0.56278  -0.53224  -0.51800  -0.50924  -0.50056
 Alpha  occ. eigenvalues --   -0.48369  -0.47196  -0.46818  -0.44872  -0.43389
 Alpha  occ. eigenvalues --   -0.42668  -0.42228  -0.41879  -0.41310  -0.41286
 Alpha  occ. eigenvalues --   -0.41269  -0.41163  -0.39792  -0.39757  -0.39742
 Alpha  occ. eigenvalues --   -0.39388  -0.38649  -0.37301  -0.36808  -0.35904
 Alpha  occ. eigenvalues --   -0.35674  -0.34437  -0.32631  -0.32355  -0.32171
 Alpha  occ. eigenvalues --   -0.32108  -0.31773  -0.31577  -0.31455  -0.30304
 Alpha  occ. eigenvalues --   -0.28577  -0.27974  -0.26875  -0.24172
 Alpha virt. eigenvalues --   -0.06752  -0.06651  -0.01504  -0.01156  -0.00788
 Alpha virt. eigenvalues --   -0.00237   0.00332   0.00927   0.01182   0.01618
 Alpha virt. eigenvalues --    0.01719   0.02429   0.02998   0.03038   0.03549

 Mulliken charges:
               1
     1  C   -0.235680
     2  C    0.089455
     3  C    0.264176
     4  C   -0.939717
     5  Si   1.221328
     6  C   -0.667968
     7  C   -0.672959
     8  C   -0.678901
     9  C    0.193304
    10  C   -1.087529
    11  Si   1.402300
    12  C   -0.680133
    13  C   -0.682468
    14  C   -0.828330
    15  C    0.909966
    16  N   -0.598633
    17  O    0.177876
    18  C   -0.102011
    19  C   -0.545422
    20  Cl   0.060291
    21  N   -0.251493
    22  H    0.153461
    23  H    0.154125
    24  H    0.161049
    25  H    0.165710
    26  H    0.166485
    27  H    0.160832
    28  H    0.167304
    29  H    0.166790
    30  H    0.166804
    31  H    0.165921
    32  H    0.160796
    33  H    0.190344
    34  H    0.165716
    35  H    0.164395
    36  H    0.166108
    37  H    0.164454
    38  H    0.188234
    39  H    0.190078
    40  H    0.189849
    41  H    0.224936
    42  H    0.219156
 Sum of Mulliken charges =  -0.00000

 Dipole moment (field-independent basis, Debye):
    X=              1.3824    Y=             -1.5710    Z=             -0.4875  Tot=              2.1487
 Quadrupole moment (field-independent basis, Debye-Ang):
   XX=           -144.2586   YY=           -138.6046   ZZ=           -151.9132
   XY=              8.3794   XZ=              0.4251   YZ=             -2.5047

 Normal termination of Gaussian 16 at Tue Oct  7 12:11:25 2025.
