 Gaussian 16, Revision C.02,
 Gaussian 16:  ES64L-G16RevC.02  7-Dec-2021

 ----------------------------------------------------------
 # td=(50-50,nstates=3) b3lyp/6-31+g(d,p) geom=connectivity
 ----------------------------------------------------------

 -------------------
 Title Card Required
 -------------------
 Symbolic Z-matrix:
 Charge =  0 Multiplicity = 1

                         Standard orientation:
 ---------------------------------------------------------------------
 Center     Atomic      Atomic             Coordinates (Angstroms)
 Number     Number       Type             X           Y           Z
 ---------------------------------------------------------------------
      1          6           0        3.781167    4.584635   -0.706996
      2          6           0        3.682965    3.090770   -0.481357
      3          8           0        2.270196    2.800374   -0.233768
      4          6           0        1.806926    1.588450   -0.069803
      5          8           0        0.453027    1.606363    0.077470
      6          6           0        0.039455    0.293249    0.179946
      7          6           0       -1.308941    0.071846    0.066698
      8          8           0       -2.140645    1.149465    0.289412
      9          6           0       -3.427096    0.752915    0.065614
     10          6           0       -4.463128    1.639588    0.263674
     11          6           0       -5.803731    1.204646    0.053700
     12          7           0       -6.891610    0.830407   -0.129498
     13          6           0       -4.226424    2.982913    0.673098
     14          7           0       -4.036595    4.083135    1.004791
     15          6           0       -3.431024   -0.603806   -0.379924
     16          6           0       -2.131216   -1.022148   -0.392146
     17         35           0       -1.541123   -2.616000   -1.160495
     18          6           0        1.204279   -0.558683    0.326672
     19          6           0        1.197069   -1.849367    0.858859
     20          6           0        2.322496   -2.724577    0.852334
     21          7           0        3.172011   -3.523091    0.861086
     22          6           0        0.075372   -2.338224    1.589787
     23          7           0       -0.814748   -2.731132    2.232820
     24          6           0        2.311451    0.310411    0.020944
     25         35           0        4.116951   -0.201472   -0.051440
     26          1           0        4.827125    4.849373   -0.891053
     27          1           0        3.188616    4.890632   -1.573405
     28          1           0        3.433789    5.137011    0.170255
     29          1           0        4.254544    2.769290    0.391744
     30          1           0        4.002572    2.521484   -1.356988
     31          1           0       -4.302385   -1.156841   -0.698725
 ---------------------------------------------------------------------

 SCF Done:  E(RB3LYP) =  -6201.32045264     A.U. after   18 cycles

 Excitation energies and oscillator strengths:

 Excited State   1:      Triplet-A      0.6552 eV 1892.33 nm  f=0.0000  <S**2>=2.000
     111 ->113         0.19110
     112 ->113         0.72697
     112 <-113         0.26575
 This state for optimization and/or second-order correction.
 Total Energy, E(TD-HF/TD-DFT) =  -6201.29637473
 Copying the excited state density for this state as the 1-particle RhoCI density.

 Excited State   2:      Triplet-A      1.5706 eV  789.42 nm  f=0.0000  <S**2>=2.000
     111 ->113         0.66837
     112 ->113        -0.15633
     112 ->114         0.14367

 Excited State   3:      Singlet-A      2.0047 eV  618.48 nm  f=0.1608  <S**2>=0.000
     111 ->113        -0.28594
     112 ->113         0.64961
     112 <-113        -0.10789

 Excited State   4:      Singlet-A      2.6424 eV  469.21 nm  f=0.6784  <S**2>=0.000
     111 ->113         0.63671
     112 ->113         0.30435

 Excited State   5:      Triplet-A      2.7655 eV  448.33 nm  f=0.0000  <S**2>=2.000
     110 ->113         0.63335
     111 ->114        -0.12934
     112 ->114        -0.17758

 Excited State   6:      Singlet-A      3.3638 eV  368.59 nm  f=0.0294  <S**2>=0.000
     110 ->113         0.67618
     112 ->114         0.14919

 The electronic state is 1-A.
 Alpha  occ. eigenvalues -- -482.99243-482.98142 -61.95036 -61.93983 -56.46525
 Alpha  occ. eigenvalues --  -56.46113 -56.46090 -56.45509 -56.45082 -56.45039
 Alpha  occ. eigenvalues --  -19.28585 -19.28284 -19.26586 -14.37580 -14.37286
 Alpha  occ. eigenvalues --  -14.36954 -14.36652 -10.38849 -10.34414 -10.34260
 Alpha  occ. eigenvalues --  -10.33808 -10.32561 -10.30323 -10.30280 -10.30151
 Alpha  occ. eigenvalues --  -10.29779 -10.29758 -10.27403 -10.27012 -10.26668
 Alpha  occ. eigenvalues --  -10.26510 -10.26176 -10.22463  -8.65199  -8.64214
 Alpha  occ. eigenvalues --   -6.60434  -6.59464  -6.59041  -6.58976  -6.58033
 Alpha  occ. eigenvalues --   -6.58030  -2.71964  -2.71569  -2.71520  -2.70991
 Alpha  occ. eigenvalues --   -2.70576  -2.70573  -2.70407  -2.70407  -2.69432
 Alpha  occ. eigenvalues --   -2.69432  -1.20739  -1.18707  -1.13632  -0.94997
 Alpha  occ. eigenvalues --   -0.94864  -0.93406  -0.92919  -0.91738  -0.91038
 Alpha  occ. eigenvalues --   -0.89504  -0.86336  -0.84061  -0.82519  -0.82105
 Alpha  occ. eigenvalues --   -0.80268  -0.75275  -0.70290  -0.68883  -0.67745
 Alpha  occ. eigenvalues --   -0.65025  -0.63825  -0.62347  -0.59856  -0.59208
 Alpha  occ. eigenvalues --   -0.59013  -0.56363  -0.55838  -0.54305  -0.53628
 Alpha  occ. eigenvalues --   -0.51257  -0.50226  -0.47555  -0.46780  -0.46337
 Alpha  occ. eigenvalues --   -0.45646  -0.44687  -0.44442  -0.43748  -0.43463
 Alpha  occ. eigenvalues --   -0.42722  -0.41058  -0.40733  -0.39908  -0.39637
 Alpha  occ. eigenvalues --   -0.39352  -0.39197  -0.38807  -0.38375  -0.37553
 Alpha  occ. eigenvalues --   -0.37483  -0.37114  -0.36749  -0.36210  -0.35912
 Alpha  occ. eigenvalues --   -0.34678  -0.33940  -0.32818  -0.32630  -0.31586
 Alpha  occ. eigenvalues --   -0.27148  -0.24873
 Alpha virt. eigenvalues --   -0.16986  -0.09320  -0.05401  -0.04933  -0.03785
 Alpha virt. eigenvalues --   -0.03128  -0.02909  -0.02716  -0.01961  -0.01286
 Alpha virt. eigenvalues --   -0.00177   0.00550   0.00588   0.00918   0.01112

 Mulliken charges:
               1
     1  C   -0.790542
     2  C    0.306742
     3  O   -0.382314
     4  C   -0.187350
     5  O   -0.294876
     6  C   -0.442164
     7  C   -0.207142
     8  O   -0.237425
     9  C    0.721951
    10  C    0.621599
    11  C   -0.243975
    12  N   -0.489500
    13  C   -0.306498
    14  N   -0.481484
    15  C    0.389639
    16  C   -0.032330
    17  Br   0.163443
    18  C    0.915672
    19  C    0.453486
    20  C   -0.021904
    21  N   -0.443316
    22  C   -0.299959
    23  N   -0.437779
    24  C    0.520412
    25  Br   0.161247
    26  H    0.161444
    27  H    0.172131
    28  H    0.174488
    29  H    0.170921
    30  H    0.166795
    31  H    0.198586
 Sum of Mulliken charges =  -0.00000

 Dipole moment (field-independent basis, Debye):
    X=              6.5890    Y=              3.1416    Z=             -4.3983  Tot=              8.5223
 Quadrupole moment (field-independent basis, Debye-Ang):
   XX=           -191.5251   YY=           -188.7996   ZZ=           -171.6211
   XY=             41.0731   XZ=              1.9180   YZ=              4.1079

 Normal termination of Gaussian 16 at Wed Aug 27 08:52:55 2025.
