 Gaussian 16, Revision C.02,
 Gaussian 16:  ES64L-G16RevC.02  7-Dec-2021

 ----------------------------------------------------------
 # td=(50-50,nstates=3) b3lyp/6-31+g(d,p) geom=connectivity
 ----------------------------------------------------------

 -------------------
 Title Card Required
 -------------------
 Symbolic Z-matrix:
 Charge =  0 Multiplicity = 1

                         Standard orientation:
 ---------------------------------------------------------------------
 Center     Atomic      Atomic             Coordinates (Angstroms)
 Number     Number       Type             X           Y           Z
 ---------------------------------------------------------------------
      1          6           0       -4.670931    1.310594   -0.397927
      2          6           0       -3.921227    0.201843   -0.539181
      3          6           0       -4.190826   -0.714829   -1.619277
      4          7           0       -4.396804   -1.445966   -2.500101
      5          6           0       -2.809624   -0.151661    0.366129
      6          6           0       -1.708311    0.518586    0.752119
      7          6           0       -1.247528    1.889647    0.318211
      8          6           0       -0.691336    2.702310    1.500629
      9          6           0       -0.252643    1.852365   -0.892154
     10          6           0        1.030325    1.086788   -0.714767
     11          6           0        2.194086    1.498043   -0.111867
     12          6           0        3.197943    0.484948   -0.132855
     13         16           0        4.842366    0.362353    0.435587
     14          6           0        4.960477   -1.271795   -0.182415
     15          6           0        3.812893   -1.704174   -0.790895
     16          6           0        2.805472   -0.694373   -0.759872
     17         16           0        1.167389   -0.559615   -1.343167
     18          6           0       -0.958973   -0.388173    1.698933
     19          6           0       -1.805853   -1.650813    1.725029
     20          8           0       -1.645146   -2.679196    2.322312
     21          8           0       -2.903607   -1.440489    0.904213
     22          1           0       -4.506021    1.988846    0.431855
     23          1           0       -5.460669    1.548113   -1.102178
     24          1           0       -2.120604    2.426537   -0.067391
     25          1           0       -0.435976    3.717672    1.179460
     26          1           0       -1.430067    2.780991    2.305190
     27          1           0        0.212183    2.245311    1.916182
     28          1           0       -0.792917    1.456937   -1.759049
     29          1           0       -0.003475    2.893642   -1.132788
     30          1           0        2.323917    2.486591    0.313455
     31          1           0        5.884512   -1.818588   -0.052509
     32          1           0        3.699677   -2.687269   -1.231155
     33          1           0        0.057414   -0.631205    1.372379
     34          1           0       -0.880075    0.012029    2.717292
 ---------------------------------------------------------------------

 SCF Done:  E(RB3LYP) =  -1619.09401183     A.U. after   17 cycles

 Excitation energies and oscillator strengths:

 Excited State   1:      Triplet-A      2.7798 eV  446.01 nm  f=0.0000  <S**2>=2.000
      77 -> 83        -0.28803
      80 -> 83         0.54531
      80 -> 85         0.12137
      82 -> 83         0.25556
 This state for optimization and/or second-order correction.
 Total Energy, E(TD-HF/TD-DFT) =  -1618.99185454
 Copying the excited state density for this state as the 1-particle RhoCI density.

 Excited State   2:      Triplet-A      2.8840 eV  429.90 nm  f=0.0000  <S**2>=2.000
      82 -> 84         0.66648

 Excited State   3:      Singlet-A      3.3693 eV  367.98 nm  f=0.0129  <S**2>=0.000
      82 -> 83         0.70314

 Excited State   4:      Triplet-A      3.4225 eV  362.26 nm  f=0.0000  <S**2>=2.000
      77 -> 83         0.20336
      80 -> 83        -0.17347
      82 -> 83         0.64359

 Excited State   5:      Singlet-A      3.8678 eV  320.56 nm  f=0.0007  <S**2>=0.000
      81 -> 83         0.70227

 Excited State   6:      Singlet-A      4.0069 eV  309.43 nm  f=0.0737  <S**2>=0.000
      80 -> 83         0.68799

 The electronic state is 1-A.
 Alpha  occ. eigenvalues --  -88.92848 -88.92770 -19.22694 -19.16483 -14.35990
 Alpha  occ. eigenvalues --  -10.34045 -10.28667 -10.27730 -10.25084 -10.24798
 Alpha  occ. eigenvalues --  -10.24463 -10.23670 -10.23625 -10.23568 -10.23460
 Alpha  occ. eigenvalues --  -10.23283 -10.23111 -10.22671 -10.21927 -10.21829
 Alpha  occ. eigenvalues --  -10.20711  -7.98676  -7.98655  -5.95123  -5.95099
 Alpha  occ. eigenvalues --   -5.94767  -5.94737  -5.94345  -5.94322  -1.13468
 Alpha  occ. eigenvalues --   -1.05522  -0.92691  -0.92040  -0.87406  -0.85893
 Alpha  occ. eigenvalues --   -0.84442  -0.80454  -0.77586  -0.75129  -0.74566
 Alpha  occ. eigenvalues --   -0.72029  -0.69829  -0.68308  -0.64702  -0.61640
 Alpha  occ. eigenvalues --   -0.58910  -0.57975  -0.57026  -0.55182  -0.54218
 Alpha  occ. eigenvalues --   -0.51433  -0.50244  -0.50078  -0.48909  -0.47872
 Alpha  occ. eigenvalues --   -0.46655  -0.45746  -0.45358  -0.44089  -0.43037
 Alpha  occ. eigenvalues --   -0.42646  -0.42065  -0.41367  -0.41022  -0.40231
 Alpha  occ. eigenvalues --   -0.39941  -0.39768  -0.38438  -0.38032  -0.37928
 Alpha  occ. eigenvalues --   -0.37140  -0.36529  -0.36306  -0.35122  -0.34791
 Alpha  occ. eigenvalues --   -0.34104  -0.31081  -0.29651  -0.29415  -0.25905
 Alpha  occ. eigenvalues --   -0.24550  -0.22801
 Alpha virt. eigenvalues --   -0.08749  -0.04918  -0.03650  -0.01956  -0.01277
 Alpha virt. eigenvalues --   -0.01061  -0.00594  -0.00168   0.00301   0.00890
 Alpha virt. eigenvalues --    0.01220   0.01561   0.01906   0.02502   0.02598

 Mulliken charges:
               1
     1  C   -0.243286
     2  C    0.224645
     3  C   -0.217864
     4  N   -0.458814
     5  C    0.493352
     6  C   -0.261719
     7  C    0.328009
     8  C   -0.694318
     9  C   -0.336597
    10  C    0.278793
    11  C   -0.032801
    12  C   -0.551694
    13  S    0.090678
    14  C   -0.160204
    15  C   -0.334102
    16  C    0.231798
    17  S    0.097515
    18  C   -0.269333
    19  C    0.410643
    20  O   -0.444679
    21  O   -0.237216
    22  H    0.155331
    23  H    0.168478
    24  H    0.126840
    25  H    0.147381
    26  H    0.152291
    27  H    0.164852
    28  H    0.155432
    29  H    0.157289
    30  H    0.134313
    31  H    0.167533
    32  H    0.145226
    33  H    0.216637
    34  H    0.195591
 Sum of Mulliken charges =  -0.00000

 Dipole moment (field-independent basis, Debye):
    X=              1.8555    Y=              6.8791    Z=              1.3199  Tot=              7.2462
 Quadrupole moment (field-independent basis, Debye-Ang):
   XX=           -135.8932   YY=           -140.1793   ZZ=           -149.6044
   XY=            -27.3469   XZ=             -6.1728   YZ=              4.9494

 Normal termination of Gaussian 16 at Wed Aug 27 08:56:11 2025.
