 Gaussian 16, Revision C.02,
 Gaussian 16:  ES64L-G16RevC.02  7-Dec-2021

 ----------------------------------------------------------
 # td=(50-50,nstates=3) b3lyp/6-31+g(d,p) geom=connectivity
 ----------------------------------------------------------

 -------------------
 Title Card Required
 -------------------
 Symbolic Z-matrix:
 Charge =  0 Multiplicity = 1

                         Standard orientation:
 ---------------------------------------------------------------------
 Center     Atomic      Atomic             Coordinates (Angstroms)
 Number     Number       Type             X           Y           Z
 ---------------------------------------------------------------------
      1          6           0       -0.451743   -0.051500    2.486927
      2          6           0       -1.149786   -0.425464    1.181197
      3          6           0       -2.625274   -0.305707    1.318440
      4          6           0       -3.453205    0.059231    0.321861
      5          6           0       -2.916464    0.400595   -0.983150
      6          8           0       -3.873768    0.754337   -1.897071
      7          6           0       -1.588857    0.382414   -1.233121
      8          6           0       -0.567730   -0.022635   -0.217228
      9          6           0        0.669709    0.937614   -0.402779
     10          6           0        0.397560    2.227559    0.258563
     11          7           0        0.218306    3.225895    0.824670
     12          6           0        2.095459    0.513569   -0.097044
     13          7           0        2.687696    0.733276    1.088884
     14         16           0        3.011621   -0.246516   -1.287319
     15          8           0        4.376954   -0.534367   -0.634239
     16          6           0       -0.520356   -1.484126    0.261096
     17          6           0        0.758035   -2.171746    0.735235
     18          6           0       -1.402270   -2.500731   -0.453447
     19          1           0       -0.754164   -0.749633    3.276453
     20          1           0        0.634965   -0.088796    2.426827
     21          1           0       -0.741183    0.955750    2.802174
     22          1           0       -3.030311   -0.462734    2.316023
     23          1           0       -4.523473    0.156481    0.471621
     24          1           0       -3.458623    1.017220   -2.730079
     25          1           0       -1.226086    0.699113   -2.210242
     26          1           0        0.678624    1.149265   -1.479508
     27          1           0        3.678018    0.486902    1.124111
     28          1           0        2.327222    1.427879    1.729164
     29          1           0        0.488708   -2.954993    1.454151
     30          1           0        1.259878   -2.658674   -0.106579
     31          1           0        1.483689   -1.523394    1.219961
     32          1           0       -2.383049   -2.118881   -0.729941
     33          1           0       -0.904511   -2.848642   -1.366162
     34          1           0       -1.553598   -3.371001    0.195437
 ---------------------------------------------------------------------

 SCF Done:  E(RB3LYP) =  -1163.08390339     A.U. after   18 cycles

 Excitation energies and oscillator strengths:

 Excited State   1:      Triplet-A      1.8606 eV  666.38 nm  f=0.0000  <S**2>=2.000
      69 -> 71         0.41851
      70 -> 71         0.58162
      70 <- 71         0.12739
 This state for optimization and/or second-order correction.
 Total Energy, E(TD-HF/TD-DFT) =  -1163.01552865
 Copying the excited state density for this state as the 1-particle RhoCI density.

 Excited State   2:      Triplet-A      2.5767 eV  481.18 nm  f=0.0000  <S**2>=2.000
      69 -> 72         0.51760
      70 -> 72        -0.44050

 Excited State   3:      Triplet-A      3.4469 eV  359.70 nm  f=0.0000  <S**2>=2.000
      69 -> 71         0.56971
      70 -> 71        -0.41020

 Excited State   4:      Singlet-A      3.4600 eV  358.34 nm  f=0.0160  <S**2>=0.000
      69 -> 71        -0.49031
      70 -> 71         0.50776

 Excited State   5:      Singlet-A      3.9776 eV  311.71 nm  f=0.1229  <S**2>=0.000
      69 -> 71         0.41479
      70 -> 71         0.38800
      70 -> 72         0.39822

 Excited State   6:      Singlet-A      4.0512 eV  306.04 nm  f=0.0270  <S**2>=0.000
      69 -> 71        -0.27248
      69 -> 72        -0.13028
      70 -> 71        -0.27414
      70 -> 72         0.56359

 The electronic state is 1-A.
 Alpha  occ. eigenvalues --  -88.97554 -19.20555 -19.13539 -14.40678 -14.36658
 Alpha  occ. eigenvalues --  -10.30336 -10.28854 -10.27139 -10.25908 -10.25172
 Alpha  occ. eigenvalues --  -10.23309 -10.23119 -10.21633 -10.20927 -10.20479
 Alpha  occ. eigenvalues --  -10.20069 -10.19336 -10.18843  -8.02586  -5.99081
 Alpha  occ. eigenvalues --   -5.98616  -5.98437  -1.08188  -1.01977  -0.97198
 Alpha  occ. eigenvalues --   -0.93511  -0.91424  -0.83871  -0.81933  -0.77886
 Alpha  occ. eigenvalues --   -0.76370  -0.73715  -0.71595  -0.69776  -0.66517
 Alpha  occ. eigenvalues --   -0.62971  -0.60875  -0.58877  -0.57138  -0.55757
 Alpha  occ. eigenvalues --   -0.54134  -0.51538  -0.50117  -0.48787  -0.47387
 Alpha  occ. eigenvalues --   -0.45712  -0.45505  -0.44981  -0.44020  -0.43087
 Alpha  occ. eigenvalues --   -0.42427  -0.42003  -0.40971  -0.40242  -0.39434
 Alpha  occ. eigenvalues --   -0.39168  -0.39015  -0.38874  -0.38582  -0.37710
 Alpha  occ. eigenvalues --   -0.36005  -0.35402  -0.35232  -0.34488  -0.32439
 Alpha  occ. eigenvalues --   -0.31504  -0.27881  -0.27535  -0.22822  -0.22285
 Alpha virt. eigenvalues --   -0.07466  -0.05372  -0.01949  -0.01769  -0.00769
 Alpha virt. eigenvalues --   -0.00200   0.00511   0.00653   0.01343   0.01971
 Alpha virt. eigenvalues --    0.02422   0.02951   0.03894   0.04048   0.04480

 Mulliken charges:
               1
     1  C   -0.299466
     2  C    0.203404
     3  C   -0.450927
     4  C    0.289965
     5  C    0.148951
     6  O   -0.494302
     7  C   -0.515334
     8  C   -0.228072
     9  C    0.943179
    10  C   -0.634972
    11  N   -0.353551
    12  C   -0.440971
    13  N   -0.447384
    14  S    0.856632
    15  O   -0.655616
    16  C    0.086128
    17  C   -0.586950
    18  C   -0.375268
    19  H    0.152967
    20  H    0.141010
    21  H    0.178867
    22  H    0.125674
    23  H    0.140450
    24  H    0.350645
    25  H    0.086439
    26  H    0.180151
    27  H    0.361655
    28  H    0.325805
    29  H    0.150286
    30  H    0.161608
    31  H    0.152515
    32  H    0.154063
    33  H    0.148572
    34  H    0.143851
 Sum of Mulliken charges =  -0.00000

 Dipole moment (field-independent basis, Debye):
    X=             -2.7512    Y=             -1.1840    Z=              0.3017  Tot=              3.0103
 Quadrupole moment (field-independent basis, Debye-Ang):
   XX=           -139.6430   YY=           -127.7104   ZZ=           -102.9905
   XY=              7.7750   XZ=              6.8055   YZ=             -5.9888

 Normal termination of Gaussian 16 at Wed Aug 27 08:57:54 2025.
