 Gaussian 16, Revision C.02,
 Gaussian 16:  ES64L-G16RevC.02  7-Dec-2021

 ----------------------------------------------------------
 # td=(50-50,nstates=3) b3lyp/6-31+g(d,p) geom=connectivity
 ----------------------------------------------------------

 -------------------
 Title Card Required
 -------------------
 Symbolic Z-matrix:
 Charge =  0 Multiplicity = 1

                         Standard orientation:
 ---------------------------------------------------------------------
 Center     Atomic      Atomic             Coordinates (Angstroms)
 Number     Number       Type             X           Y           Z
 ---------------------------------------------------------------------
      1          6           0        3.335576   -2.000078   -0.405645
      2          6           0        3.193431   -0.522591    0.013240
      3          6           0        3.647251   -0.349021    1.483647
      4          6           0        4.064267    0.369311   -0.904947
      5          6           0        1.759069   -0.108501   -0.111230
      6          6           0        0.596913   -0.708499   -0.472141
      7          6           0       -0.299336    0.425635   -0.281474
      8          6           0       -1.620562    0.650371   -0.425412
      9          6           0       -2.165877    1.938031   -0.126096
     10          7           0       -2.652058    2.975027    0.089213
     11          6           0       -2.591592   -0.415698   -0.879716
     12          6           0       -3.372845   -1.094555    0.261355
     13          6           0       -4.654997   -1.791917   -0.144642
     14          8           0       -2.970878   -1.083111    1.407173
     15         16           0        1.036495    1.534078    0.250197
     16          1           0        3.025775   -2.151575   -1.445022
     17          1           0        4.381524   -2.311572   -0.317810
     18          1           0        2.735032   -2.655269    0.233903
     19          1           0        3.556029    0.691442    1.810689
     20          1           0        4.697062   -0.645585    1.583490
     21          1           0        3.047620   -0.969115    2.157136
     22          1           0        3.768334    0.264151   -1.953499
     23          1           0        3.979864    1.426352   -0.633622
     24          1           0        5.116422    0.078773   -0.812855
     25          1           0        0.387816   -1.724449   -0.784085
     26          1           0       -3.301270   -0.000777   -1.605206
     27          1           0       -2.052504   -1.214243   -1.405943
     28          1           0       -4.515987   -2.381387   -1.058074
     29          1           0       -5.005597   -2.430698    0.667316
     30          1           0       -5.420404   -1.036520   -0.363098
 ---------------------------------------------------------------------

 SCF Done:  E(RB3LYP) =  -994.450304935     A.U. after   16 cycles

 Excitation energies and oscillator strengths:

 Excited State   1:      Triplet-A      2.4019 eV  516.20 nm  f=0.0000  <S**2>=2.000
      57 -> 60         0.15438
      58 -> 60         0.47528
      59 -> 60         0.48867
      58 <- 60         0.10319
 This state for optimization and/or second-order correction.
 Total Energy, E(TD-HF/TD-DFT) =  -994.362038400
 Copying the excited state density for this state as the 1-particle RhoCI density.

 Excited State   2:      Triplet-A      3.0057 eV  412.49 nm  f=0.0000  <S**2>=2.000
      57 -> 60        -0.12767
      58 -> 60        -0.47505
      59 -> 60         0.48798

 Excited State   3:      Singlet-A      3.2839 eV  377.55 nm  f=0.0064  <S**2>=0.000
      58 -> 60        -0.10875
      59 -> 60         0.69622

 Excited State   4:      Triplet-A      3.7798 eV  328.02 nm  f=0.0000  <S**2>=2.000
      57 -> 60         0.22079
      57 -> 61         0.56617
      58 -> 61        -0.33449

 Excited State   5:      Singlet-A      4.2821 eV  289.54 nm  f=0.0068  <S**2>=0.000
      57 -> 60         0.12064
      57 -> 61         0.12040
      58 -> 60        -0.11617
      59 -> 61        -0.12295
      59 -> 62         0.64369

 Excited State   6:      Singlet-A      4.2880 eV  289.14 nm  f=0.0581  <S**2>=0.000
      57 -> 60         0.36551
      57 -> 61         0.35691
      58 -> 60        -0.33641
      58 -> 61        -0.26278
      59 -> 62        -0.21940

 The electronic state is 1-A.
 Alpha  occ. eigenvalues --  -88.90688 -19.16617 -14.34609 -10.30322 -10.26356
 Alpha  occ. eigenvalues --  -10.25568 -10.25219 -10.23764 -10.23571 -10.23417
 Alpha  occ. eigenvalues --  -10.21860 -10.21049 -10.19905 -10.19786 -10.19678
 Alpha  occ. eigenvalues --   -7.96590  -5.93067  -5.92818  -5.92059  -1.06497
 Alpha  occ. eigenvalues --   -0.91832  -0.90474  -0.84801  -0.82419  -0.77545
 Alpha  occ. eigenvalues --   -0.72281  -0.71363  -0.70599  -0.69204  -0.65815
 Alpha  occ. eigenvalues --   -0.59999  -0.56000  -0.52054  -0.51746  -0.49532
 Alpha  occ. eigenvalues --   -0.48716  -0.47803  -0.46662  -0.46176  -0.45175
 Alpha  occ. eigenvalues --   -0.43769  -0.42646  -0.42209  -0.41561  -0.40947
 Alpha  occ. eigenvalues --   -0.39104  -0.38952  -0.38603  -0.37428  -0.36883
 Alpha  occ. eigenvalues --   -0.36210  -0.36029  -0.35602  -0.34835  -0.33892
 Alpha  occ. eigenvalues --   -0.32972  -0.27529  -0.25600  -0.23620
 Alpha virt. eigenvalues --   -0.07919  -0.03936  -0.03005  -0.01536  -0.00216
 Alpha virt. eigenvalues --    0.01086   0.01223   0.01816   0.02248   0.02462
 Alpha virt. eigenvalues --    0.02542   0.03228   0.03681   0.04343   0.04889

 Mulliken charges:
               1
     1  C   -0.530772
     2  C    0.685439
     3  C   -0.530371
     4  C   -0.523249
     5  C   -0.281550
     6  C    0.245106
     7  C   -0.368133
     8  C    0.796792
     9  C   -0.256397
    10  N   -0.495224
    11  C   -0.671982
    12  C    0.415625
    13  C   -0.602304
    14  O   -0.354220
    15  S    0.051942
    16  H    0.155856
    17  H    0.154805
    18  H    0.158469
    19  H    0.160051
    20  H    0.151938
    21  H    0.162354
    22  H    0.158551
    23  H    0.159068
    24  H    0.152567
    25  H    0.128756
    26  H    0.174584
    27  H    0.170335
    28  H    0.162964
    29  H    0.187165
    30  H    0.181835
 Sum of Mulliken charges =  -0.00000

 Dipole moment (field-independent basis, Debye):
    X=              2.3139    Y=             -5.3306    Z=             -3.3636  Tot=              6.7144
 Quadrupole moment (field-independent basis, Debye-Ang):
   XX=            -83.6027   YY=           -109.3804   ZZ=           -102.5901
   XY=             11.3811   XZ=             10.2645   YZ=              3.1194

 Normal termination of Gaussian 16 at Wed Aug 27 08:59:12 2025.
