 Gaussian 16, Revision C.02,
 Gaussian 16:  ES64L-G16RevC.02  7-Dec-2021

 ----------------------------------------------------------
 # td=(50-50,nstates=3) b3lyp/6-31+g(d,p) geom=connectivity
 ----------------------------------------------------------

 -------------------
 Title Card Required
 -------------------
 Symbolic Z-matrix:
 Charge =  0 Multiplicity = 1

                         Standard orientation:
 ---------------------------------------------------------------------
 Center     Atomic      Atomic             Coordinates (Angstroms)
 Number     Number       Type             X           Y           Z
 ---------------------------------------------------------------------
      1          6           0       -7.284251    0.221512    0.337631
      2          7           0       -5.898117    0.673076    0.335340
      3          6           0       -5.538592    1.738307    1.259919
      4          7           0       -5.018065   -0.305244    0.046749
      5          6           0       -3.776248   -0.220616    0.376281
      6          6           0       -2.853553   -1.318482   -0.110867
      7          6           0       -2.047221   -1.843990    1.003915
      8          7           0       -1.419188   -2.246888    1.894406
      9          6           0       -1.953473   -0.908011   -1.334530
     10          6           0       -0.942246    0.186401   -1.053990
     11          6           0       -1.495672    1.504297   -1.137484
     12          7           0       -1.979467    2.563087   -1.217744
     13          6           0        0.401912    0.079584   -0.729021
     14          6           0        1.174953    1.281477   -0.488676
     15          6           0        2.490469    1.270102   -0.136454
     16          8           0        3.233466    2.366194    0.097811
     17          6           0        2.642032    3.662185   -0.016240
     18          6           0        3.209811    0.005788    0.015884
     19          6           0        4.553006   -0.068692    0.375438
     20          6           0        5.180110   -1.349155    0.493167
     21          7           0        5.673656   -2.401343    0.580552
     22          6           0        5.424484    1.028911    0.651388
     23          7           0        6.222778    1.841646    0.896554
     24          6           0        2.460303   -1.192441   -0.233426
     25          6           0        1.142392   -1.186090   -0.595104
     26          8           0        0.445746   -2.310295   -0.848715
     27          6           0        1.046212   -3.585912   -0.587518
     28          1           0       -7.944464    1.072785    0.150266
     29          1           0       -7.407207   -0.510769   -0.461322
     30          1           0       -7.569339   -0.246327    1.293227
     31          1           0       -6.390633    2.412361    1.360813
     32          1           0       -5.272621    1.348026    2.256729
     33          1           0       -4.693376    2.313415    0.868942
     34          1           0       -3.341585    0.601756    0.943327
     35          1           0       -3.495668   -2.133249   -0.465921
     36          1           0       -1.454225   -1.796304   -1.711499
     37          1           0       -2.648407   -0.551116   -2.100585
     38          1           0        0.662493    2.228023   -0.591575
     39          1           0        2.280282    3.835842   -1.035820
     40          1           0        1.819011    3.777492    0.697771
     41          1           0        3.441000    4.363931    0.220024
     42          1           0        2.982406   -2.133019   -0.127120
     43          1           0        0.273008   -4.319938   -0.811189
     44          1           0        1.912602   -3.749735   -1.236720
     45          1           0        1.335298   -3.661756    0.465002
 ---------------------------------------------------------------------

 SCF Done:  E(RB3LYP) =  -1213.70779487     A.U. after   17 cycles

 Excitation energies and oscillator strengths:

 Excited State   1:      Triplet-A      0.9600 eV 1291.47 nm  f=0.0000  <S**2>=2.000
      94 -> 96         0.65067
      95 -> 96        -0.35046
      94 <- 96         0.22410
 This state for optimization and/or second-order correction.
 Total Energy, E(TD-HF/TD-DFT) =  -1213.67251463
 Copying the excited state density for this state as the 1-particle RhoCI density.

 Excited State   2:      Triplet-A      1.9235 eV  644.58 nm  f=0.0000  <S**2>=2.000
      93 -> 96         0.54348
      94 -> 96         0.21870
      95 -> 96         0.38405

 Excited State   3:      Singlet-A      1.9817 eV  625.64 nm  f=0.0512  <S**2>=0.000
      94 -> 96         0.19253
      95 -> 96         0.67983

 Excited State   4:      Triplet-A      1.9911 eV  622.70 nm  f=0.0000  <S**2>=2.000
      93 -> 96        -0.43777
      94 -> 96         0.25789
      95 -> 96         0.48592

 Excited State   5:      Singlet-A      2.6011 eV  476.66 nm  f=0.0076  <S**2>=0.000
      93 -> 96         0.69579

 Excited State   6:      Singlet-A      2.9778 eV  416.36 nm  f=0.9620  <S**2>=0.000
      94 -> 96         0.67734
      95 -> 96        -0.19619
      94 <- 96        -0.13048

 The electronic state is 1-A.
 Alpha  occ. eigenvalues --  -19.23404 -19.22696 -14.40350 -14.39320 -14.37018
 Alpha  occ. eigenvalues --  -14.36305 -14.35539 -14.35280 -10.31109 -10.30409
 Alpha  occ. eigenvalues --  -10.28572 -10.27705 -10.27678 -10.27327 -10.27211
 Alpha  occ. eigenvalues --  -10.26960 -10.26679 -10.26047 -10.25649 -10.24988
 Alpha  occ. eigenvalues --  -10.24776 -10.24140 -10.24126 -10.23567 -10.23350
 Alpha  occ. eigenvalues --  -10.23324 -10.23138  -1.12001  -1.11504  -1.03640
 Alpha  occ. eigenvalues --   -0.94121  -0.93718  -0.92547  -0.91742  -0.90836
 Alpha  occ. eigenvalues --   -0.88246  -0.86891  -0.83498  -0.80521  -0.80153
 Alpha  occ. eigenvalues --   -0.76290  -0.75907  -0.74725  -0.71850  -0.69775
 Alpha  occ. eigenvalues --   -0.67752  -0.66620  -0.63481  -0.59925  -0.58877
 Alpha  occ. eigenvalues --   -0.58176  -0.57029  -0.56198  -0.54764  -0.53092
 Alpha  occ. eigenvalues --   -0.52314  -0.51255  -0.50950  -0.50430  -0.49608
 Alpha  occ. eigenvalues --   -0.49215  -0.48691  -0.47461  -0.47108  -0.46403
 Alpha  occ. eigenvalues --   -0.44437  -0.44202  -0.43309  -0.42530  -0.42283
 Alpha  occ. eigenvalues --   -0.41945  -0.41650  -0.41325  -0.40156  -0.39271
 Alpha  occ. eigenvalues --   -0.39226  -0.39131  -0.38969  -0.38425  -0.38265
 Alpha  occ. eigenvalues --   -0.37656  -0.37184  -0.36874  -0.35994  -0.35631
 Alpha  occ. eigenvalues --   -0.35575  -0.34762  -0.34223  -0.33802  -0.33471
 Alpha  occ. eigenvalues --   -0.32728  -0.29855  -0.26446  -0.24577  -0.23292
 Alpha virt. eigenvalues --   -0.14488  -0.04912  -0.03256  -0.02165  -0.01678
 Alpha virt. eigenvalues --   -0.01417  -0.00762  -0.00432  -0.00274   0.00183
 Alpha virt. eigenvalues --    0.00951   0.01207   0.01275   0.01607   0.02175

 Mulliken charges:
               1
     1  C   -0.293731
     2  N    0.057273
     3  C   -0.358817
     4  N   -0.006042
     5  C   -0.512600
     6  C    0.381894
     7  C   -0.243083
     8  N   -0.385868
     9  C   -0.537356
    10  C    0.763593
    11  C   -0.403647
    12  N   -0.461982
    13  C    0.713832
    14  C   -0.652325
    15  C    0.061081
    16  O   -0.341832
    17  C   -0.124103
    18  C    0.987959
    19  C    0.971169
    20  C   -0.500390
    21  N   -0.478805
    22  C    0.069335
    23  N   -0.528400
    24  C   -0.655662
    25  C   -0.009290
    26  O   -0.316083
    27  C   -0.104364
    28  H    0.148270
    29  H    0.166130
    30  H    0.142157
    31  H    0.153370
    32  H    0.155053
    33  H    0.168531
    34  H    0.136133
    35  H    0.198986
    36  H    0.189630
    37  H    0.175852
    38  H    0.145507
    39  H    0.156225
    40  H    0.156510
    41  H    0.170486
    42  H    0.149043
    43  H    0.158707
    44  H    0.158653
    45  H    0.179001
 Sum of Mulliken charges =  -0.00000

 Dipole moment (field-independent basis, Debye):
    X=             -8.2370    Y=              0.3179    Z=             -2.7396  Tot=              8.6864
 Quadrupole moment (field-independent basis, Debye-Ang):
   XX=           -191.0136   YY=           -155.5056   ZZ=           -165.6861
   XY=              1.2208   XZ=            -14.7346   YZ=             14.0505

 Normal termination of Gaussian 16 at Wed Aug 27 09:05:19 2025.
