 Gaussian 16, Revision C.02,
 Gaussian 16:  ES64L-G16RevC.02  7-Dec-2021

 ----------------------------------------------------------
 # td=(50-50,nstates=3) b3lyp/6-31+g(d,p) geom=connectivity
 ----------------------------------------------------------

 -------------------
 Title Card Required
 -------------------
 Symbolic Z-matrix:
 Charge =  0 Multiplicity = 1

                         Standard orientation:
 ---------------------------------------------------------------------
 Center     Atomic      Atomic             Coordinates (Angstroms)
 Number     Number       Type             X           Y           Z
 ---------------------------------------------------------------------
      1          6           0       -7.673209    1.306612    0.000455
      2          6           0       -6.191828    1.642254    0.000284
      3          8           0       -5.454743    0.423264    0.000026
      4          6           0       -4.069446    0.618875   -0.000157
      5          6           0       -3.344547   -0.726670   -0.000435
      6          8           0       -3.959902   -1.777440   -0.000276
      7          6           0       -1.840817   -0.708367   -0.000278
      8          6           0       -1.166248   -1.941783   -0.000250
      9          6           0        0.221615   -1.992644   -0.000139
     10          6           0        0.969677   -0.801676   -0.000025
     11          6           0        2.438888   -0.833859    0.000084
     12          7           0        3.131845   -1.951032   -0.000008
     13          8           0        4.466384   -1.507848    0.000641
     14          6           0        4.419437   -0.161360    0.000207
     15          6           0        5.747960    0.527858    0.000439
     16         17           0        5.608193    2.313338   -0.000390
     17          7           0        3.216055    0.314467    0.000103
     18          6           0        0.305406    0.433057   -0.000033
     19          6           0       -1.087850    0.476535   -0.000156
     20          1           0       -8.268227    2.226043    0.000658
     21          1           0       -7.934783    0.721837   -0.886275
     22          1           0       -7.934526    0.721611    0.887112
     23          1           0       -5.926885    2.238189    0.889609
     24          1           0       -5.927141    2.238412   -0.888969
     25          1           0       -3.745194    1.193284   -0.886852
     26          1           0       -3.744937    1.193109    0.886561
     27          1           0       -1.756407   -2.851898   -0.000344
     28          1           0        0.734965   -2.948348   -0.000143
     29          1           0        6.314660    0.233209    0.886579
     30          1           0        6.315362    0.232424   -0.884987
     31          1           0        0.885891    1.348881    0.000059
     32          1           0       -1.575512    1.445658   -0.000154
 ---------------------------------------------------------------------

 SCF Done:  E(RB3LYP) =  -1298.58088608     A.U. after   15 cycles

 Excitation energies and oscillator strengths:

 Excited State   1:      Triplet-A      2.8939 eV  428.43 nm  f=0.0000  <S**2>=2.000
      70 -> 74        -0.10603
      70 -> 76         0.13335
      71 -> 74        -0.26932
      72 -> 74         0.60088
 This state for optimization and/or second-order correction.
 Total Energy, E(TD-HF/TD-DFT) =  -1298.47453707
 Copying the excited state density for this state as the 1-particle RhoCI density.

 Excited State   2:      Triplet-A      3.0626 eV  404.83 nm  f=0.0000  <S**2>=2.000
      73 -> 74         0.64297
      73 -> 75         0.19911
      73 -> 78        -0.17643

 Excited State   3:      Singlet-A      3.5185 eV  352.38 nm  f=0.0000  <S**2>=0.000
      73 -> 74         0.67071
      73 -> 75         0.16246
      73 -> 78        -0.12598

 Excited State   4:      Triplet-A      3.7226 eV  333.06 nm  f=0.0000  <S**2>=2.000
      70 -> 74         0.59482
      71 -> 74        -0.34269

 Excited State   5:      Singlet-A      4.2488 eV  291.81 nm  f=0.1191  <S**2>=0.000
      71 -> 74         0.42890
      72 -> 74         0.54831

 Excited State   6:      Singlet-A      4.4341 eV  279.61 nm  f=0.0788  <S**2>=0.000
      70 -> 74         0.57141
      71 -> 74        -0.27114
      72 -> 74         0.18519
      72 -> 75        -0.11163
      72 -> 76        -0.19866

 The electronic state is 1-A.
 Alpha  occ. eigenvalues -- -101.56819 -19.27813 -19.16759 -19.15607 -14.41691
 Alpha  occ. eigenvalues --  -14.37322 -10.33017 -10.29596 -10.29200 -10.28783
 Alpha  occ. eigenvalues --  -10.25703 -10.24476 -10.23771 -10.22515 -10.22452
 Alpha  occ. eigenvalues --  -10.22065 -10.21916 -10.21599 -10.18376  -9.48333
 Alpha  occ. eigenvalues --   -7.24808  -7.23716  -7.23712  -1.19375  -1.06458
 Alpha  occ. eigenvalues --   -1.04213  -0.97196  -0.92043  -0.88655  -0.87333
 Alpha  occ. eigenvalues --   -0.80202  -0.77941  -0.77384  -0.74604  -0.72293
 Alpha  occ. eigenvalues --   -0.68151  -0.64823  -0.62921  -0.61662  -0.61422
 Alpha  occ. eigenvalues --   -0.57030  -0.55765  -0.53514  -0.51688  -0.50658
 Alpha  occ. eigenvalues --   -0.50428  -0.48536  -0.48253  -0.48116  -0.46516
 Alpha  occ. eigenvalues --   -0.45397  -0.45381  -0.44682  -0.44326  -0.43817
 Alpha  occ. eigenvalues --   -0.41063  -0.39720  -0.39271  -0.38768  -0.38535
 Alpha  occ. eigenvalues --   -0.36988  -0.36494  -0.36276  -0.35587  -0.33571
 Alpha  occ. eigenvalues --   -0.33374  -0.33093  -0.31902  -0.31726  -0.28125
 Alpha  occ. eigenvalues --   -0.27553  -0.26599  -0.26587
 Alpha virt. eigenvalues --   -0.09169  -0.04899  -0.03166  -0.02468  -0.00768
 Alpha virt. eigenvalues --   -0.00733  -0.00204   0.01496   0.02065   0.02927
 Alpha virt. eigenvalues --    0.03110   0.03405   0.03494   0.03627   0.04849

 Mulliken charges:
               1
     1  C   -0.703955
     2  C    0.314482
     3  O   -0.297457
     4  C   -0.543154
     5  C    0.397631
     6  O   -0.396310
     7  C    0.731423
     8  C    0.169510
     9  C    0.017891
    10  C    0.068406
    11  C    1.011808
    12  N   -0.662463
    13  O    0.177229
    14  C    0.101961
    15  C   -0.577043
    16  Cl   0.025821
    17  N   -0.176424
    18  C   -0.662685
    19  C   -1.029740
    20  H    0.141893
    21  H    0.163667
    22  H    0.163666
    23  H    0.114615
    24  H    0.114615
    25  H    0.140900
    26  H    0.140904
    27  H    0.164052
    28  H    0.152892
    29  H    0.222472
    30  H    0.222463
    31  H    0.159251
    32  H    0.131677
 Sum of Mulliken charges =  -0.00000

 Dipole moment (field-independent basis, Debye):
    X=              2.4405    Y=              3.1549    Z=              0.0011  Tot=              3.9887
 Quadrupole moment (field-independent basis, Debye-Ang):
   XX=           -109.0064   YY=           -124.3265   ZZ=           -118.0584
   XY=            -19.9243   XZ=              0.0044   YZ=              0.0017

 Normal termination of Gaussian 16 at Tue Oct  7 12:05:49 2025.
