 Gaussian 16, Revision C.02,
 Gaussian 16:  ES64L-G16RevC.02  7-Dec-2021

 ----------------------------------------------------------
 # td=(50-50,nstates=3) b3lyp/6-31+g(d,p) geom=connectivity
 ----------------------------------------------------------

 -------------------
 Title Card Required
 -------------------
 Symbolic Z-matrix:
 Charge =  0 Multiplicity = 1

                         Standard orientation:
 ---------------------------------------------------------------------
 Center     Atomic      Atomic             Coordinates (Angstroms)
 Number     Number       Type             X           Y           Z
 ---------------------------------------------------------------------
      1          6           0       -3.372866    2.427716    1.294136
      2          7           0       -2.795779    1.241948    0.690911
      3          6           0       -1.738123    0.539856    1.428559
      4          6           0       -1.505666   -0.764782    0.621734
      5          6           0       -1.021458   -1.910501    1.517463
      6          6           0       -0.563361   -0.519697   -0.623859
      7          6           0        0.896324   -0.229987   -0.366092
      8          6           0        1.476736    1.017639   -0.337525
      9          7           0        0.629750    2.210608   -0.594513
     10          8           0        0.329285    2.901896    0.373803
     11          8           0        0.307195    2.420498   -1.758351
     12          6           0        2.883015    1.276098   -0.113172
     13         17           0        3.469392    2.915879   -0.129160
     14          6           0        3.768547    0.250133    0.077371
     15          6           0        3.217396   -1.049488    0.028371
     16          6           0        1.835441   -1.309830   -0.191678
     17          7           0        1.593342   -2.611657   -0.245185
     18          8           0        2.795717   -3.230171   -0.053530
     19          7           0        3.835624   -2.237058    0.122684
     20          8           0        4.991055   -2.597753    0.308205
     21          6           0       -2.907467   -0.968737    0.051724
     22          6           0       -3.497219   -2.085395   -0.523741
     23          6           0       -4.805591   -1.989136   -1.025965
     24          6           0       -5.493003   -0.774468   -0.949445
     25          6           0       -4.906858    0.362625   -0.376693
     26          6           0       -3.602434    0.256149    0.115997
     27          1           0       -2.568590    3.111656    1.576940
     28          1           0       -4.008661    2.944456    0.570393
     29          1           0       -3.975524    2.196968    2.190100
     30          1           0       -0.851121    1.167966    1.535114
     31          1           0       -2.090092    0.273379    2.441839
     32          1           0       -0.079657   -1.659074    2.017488
     33          1           0       -1.766666   -2.118143    2.290923
     34          1           0       -0.854353   -2.827369    0.946323
     35          1           0       -0.611961   -1.420993   -1.242991
     36          1           0       -0.995680    0.294732   -1.209028
     37          1           0        4.826940    0.415664    0.234723
     38          1           0       -2.961779   -3.030167   -0.577220
     39          1           0       -5.283458   -2.858284   -1.466861
     40          1           0       -6.507137   -0.707535   -1.333490
     41          1           0       -5.458968    1.294961   -0.319949
 ---------------------------------------------------------------------

 SCF Done:  E(RB3LYP) =  -1636.73594140     A.U. after   22 cycles

 Excitation energies and oscillator strengths:

 Excited State   1:      Triplet-A      1.2228 eV 1013.90 nm  f=0.0000  <S**2>=2.000
      95 -> 98         0.42324
      96 -> 98         0.55373
      96 -> 99        -0.11962
      97 -> 98         0.11154
      95 <- 98         0.13973
      96 <- 98         0.17538
 This state for optimization and/or second-order correction.
 Total Energy, E(TD-HF/TD-DFT) =  -1636.69100264
 Copying the excited state density for this state as the 1-particle RhoCI density.

 Excited State   2:      Triplet-A      1.4910 eV  831.53 nm  f=0.0000  <S**2>=2.000
      97 -> 98         0.69104

 Excited State   3:      Singlet-A      1.5145 eV  818.66 nm  f=0.0128  <S**2>=0.000
      97 -> 98         0.69915
      97 -> 99         0.10228

 Excited State   4:      Triplet-A      1.8748 eV  661.33 nm  f=0.0000  <S**2>=2.000
      97 -> 99         0.69933

 Excited State   5:      Singlet-A      1.8792 eV  659.78 nm  f=0.0012  <S**2>=0.000
      97 -> 98        -0.10235
      97 -> 99         0.69867

 Excited State   6:      Singlet-A      2.9279 eV  423.46 nm  f=0.0315  <S**2>=0.000
      95 -> 98        -0.33979
      96 -> 98         0.60277
      96 -> 99         0.13169

 The electronic state is 1-A.
 Alpha  occ. eigenvalues -- -101.59681 -19.31176 -19.23135 -19.23095 -19.22056
 Alpha  occ. eigenvalues --  -14.61342 -14.57765 -14.44233 -14.36122 -10.31882
 Alpha  occ. eigenvalues --  -10.30762 -10.29863 -10.29097 -10.27840 -10.26718
 Alpha  occ. eigenvalues --  -10.23340 -10.23036 -10.22935 -10.22658 -10.22268
 Alpha  occ. eigenvalues --  -10.19994 -10.19844 -10.19727 -10.19493 -10.19316
 Alpha  occ. eigenvalues --  -10.19057  -9.51135  -7.27594  -7.26554  -7.26511
 Alpha  occ. eigenvalues --   -1.27042  -1.25067  -1.15272  -1.09931  -0.97132
 Alpha  occ. eigenvalues --   -0.96709  -0.92528  -0.91818  -0.87881  -0.85499
 Alpha  occ. eigenvalues --   -0.83521  -0.81856  -0.78696  -0.75212  -0.74459
 Alpha  occ. eigenvalues --   -0.72926  -0.72069  -0.69151  -0.67566  -0.66516
 Alpha  occ. eigenvalues --   -0.64432  -0.62049  -0.60426  -0.59480  -0.58623
 Alpha  occ. eigenvalues --   -0.57259  -0.56961  -0.55917  -0.55211  -0.54704
 Alpha  occ. eigenvalues --   -0.52923  -0.51503  -0.49972  -0.49482  -0.49225
 Alpha  occ. eigenvalues --   -0.48010  -0.47376  -0.46959  -0.46284  -0.45266
 Alpha  occ. eigenvalues --   -0.44838  -0.44302  -0.44045  -0.43165  -0.42968
 Alpha  occ. eigenvalues --   -0.41381  -0.40165  -0.39780  -0.39558  -0.38926
 Alpha  occ. eigenvalues --   -0.38228  -0.37269  -0.37181  -0.36490  -0.36110
 Alpha  occ. eigenvalues --   -0.35022  -0.34824  -0.34666  -0.34362  -0.33551
 Alpha  occ. eigenvalues --   -0.32512  -0.32271  -0.31006  -0.29534  -0.25821
 Alpha  occ. eigenvalues --   -0.25423  -0.20470
 Alpha virt. eigenvalues --   -0.13186  -0.11347  -0.04745  -0.04526  -0.02704
 Alpha virt. eigenvalues --   -0.01742  -0.01150  -0.00476   0.00259   0.00711
 Alpha virt. eigenvalues --    0.00909   0.01327   0.02022   0.02284   0.02863

 Mulliken charges:
               1
     1  C   -0.222763
     2  N    0.090924
     3  C   -0.732913
     4  C    0.629555
     5  C   -0.503998
     6  C    0.015850
     7  C    0.444399
     8  C    0.287588
     9  N   -0.484261
    10  O    0.077402
    11  O    0.086321
    12  C   -0.313260
    13  Cl   0.331634
    14  C    0.574199
    15  C   -0.339777
    16  C   -0.529100
    17  N   -0.466673
    18  O    0.416036
    19  N   -0.610322
    20  O    0.057083
    21  C   -0.031771
    22  C   -0.014520
    23  C   -0.220023
    24  C   -0.126626
    25  C   -0.269628
    26  C   -0.352194
    27  H    0.154486
    28  H    0.144419
    29  H    0.139837
    30  H    0.149903
    31  H    0.137174
    32  H    0.142619
    33  H    0.157238
    34  H    0.172665
    35  H    0.174334
    36  H    0.171150
    37  H    0.183466
    38  H    0.117868
    39  H    0.122410
    40  H    0.122145
    41  H    0.117125
 Sum of Mulliken charges =  -0.00000

 Dipole moment (field-independent basis, Debye):
    X=             -0.5643    Y=              0.7985    Z=              1.3677  Tot=              1.6812
 Quadrupole moment (field-independent basis, Debye-Ang):
   XX=           -159.5613   YY=           -170.9606   ZZ=           -160.5532
   XY=              7.8163   XZ=             -1.4731   YZ=              4.8736

 Normal termination of Gaussian 16 at Tue Oct  7 12:25:32 2025.
