 Gaussian 16, Revision C.02,
 Gaussian 16:  ES64L-G16RevC.02  7-Dec-2021

 ----------------------------------------------------------
 # td=(50-50,nstates=3) b3lyp/6-31+g(d,p) geom=connectivity
 ----------------------------------------------------------

 -------------------
 Title Card Required
 -------------------
 Symbolic Z-matrix:
 Charge =  0 Multiplicity = 1

                         Standard orientation:
 ---------------------------------------------------------------------
 Center     Atomic      Atomic             Coordinates (Angstroms)
 Number     Number       Type             X           Y           Z
 ---------------------------------------------------------------------
      1          6           0       -1.775819   -2.050861   -0.937418
      2          6           0       -1.818286   -0.882349   -0.266883
      3          6           0       -3.035637   -0.470150    0.384914
      4          7           0       -4.019121   -0.157859    0.920286
      5          6           0       -0.672935    0.037225   -0.173484
      6          6           0        0.656376   -0.196000    0.000844
      7          6           0        1.388189   -1.500143    0.210674
      8          6           0        2.293681   -1.831445   -0.994508
      9          6           0        2.195981   -1.478288    1.525176
     10          6           0        1.290025    1.126927   -0.007622
     11          8           0        2.456114    1.453195    0.088785
     12          6           0        0.123121    2.138786   -0.179076
     13          8           0        0.128580    3.329610   -0.241327
     14          8           0       -1.037293    1.378835   -0.265722
     15          1           0       -0.885638   -2.358257   -1.473184
     16          1           0       -2.642432   -2.701246   -0.975592
     17          1           0        0.635867   -2.292255    0.300156
     18          1           0        2.788120   -2.795962   -0.838832
     19          1           0        1.722030   -1.889605   -1.927390
     20          1           0        3.068627   -1.069314   -1.119928
     21          1           0        2.672945   -2.451326    1.682036
     22          1           0        1.548856   -1.277208    2.385074
     23          1           0        2.978084   -0.715142    1.496059
 ---------------------------------------------------------------------

 SCF Done:  E(RB3LYP) =  -666.882784369     A.U. after   17 cycles

 Excitation energies and oscillator strengths:

 Excited State   1:      Triplet-A      2.0632 eV  600.93 nm  f=0.0000  <S**2>=2.000
      50 -> 51         0.67515
      50 -> 52         0.16583
 This state for optimization and/or second-order correction.
 Total Energy, E(TD-HF/TD-DFT) =  -666.806962458
 Copying the excited state density for this state as the 1-particle RhoCI density.

 Excited State   2:      Triplet-A      2.0822 eV  595.45 nm  f=0.0000  <S**2>=2.000
      48 -> 52         0.11714
      49 -> 51         0.68598
      49 <- 51         0.10439

 Excited State   3:      Singlet-A      2.5405 eV  488.03 nm  f=0.0001  <S**2>=0.000
      49 -> 51         0.13901
      50 -> 51         0.67933
      50 -> 52         0.12229

 Excited State   4:      Triplet-A      3.1380 eV  395.10 nm  f=0.0000  <S**2>=2.000
      48 -> 51         0.49158
      48 -> 52        -0.29753
      49 -> 52         0.36687

 Excited State   5:      Singlet-A      3.4385 eV  360.57 nm  f=0.1133  <S**2>=0.000
      49 -> 51         0.68030
      50 -> 51        -0.14329

 Excited State   6:      Singlet-A      4.3170 eV  287.20 nm  f=0.0071  <S**2>=0.000
      45 -> 51        -0.10404
      47 -> 51         0.55078
      47 -> 52         0.13018
      48 -> 51         0.34251
      49 -> 52        -0.14564
      50 -> 52         0.13501

 The electronic state is 1-A.
 Alpha  occ. eigenvalues --  -19.25397 -19.20329 -19.19475 -14.37482 -10.36250
 Alpha  occ. eigenvalues --  -10.32880 -10.32364 -10.29690 -10.26971 -10.26554
 Alpha  occ. eigenvalues --  -10.24749 -10.23854 -10.20591 -10.20001  -1.16578
 Alpha  occ. eigenvalues --   -1.09261  -1.08422  -0.94211  -0.88814  -0.85623
 Alpha  occ. eigenvalues --   -0.79999  -0.75660  -0.71126  -0.68743  -0.65198
 Alpha  occ. eigenvalues --   -0.61746  -0.59724  -0.56227  -0.52842  -0.51429
 Alpha  occ. eigenvalues --   -0.50055  -0.48843  -0.47819  -0.47058  -0.45084
 Alpha  occ. eigenvalues --   -0.44705  -0.44131  -0.43196  -0.42080  -0.40449
 Alpha  occ. eigenvalues --   -0.39616  -0.39244  -0.38281  -0.37299  -0.37258
 Alpha  occ. eigenvalues --   -0.36690  -0.35156  -0.32941  -0.28696  -0.28477
 Alpha virt. eigenvalues --   -0.14223  -0.09085  -0.02470  -0.01613  -0.00358
 Alpha virt. eigenvalues --    0.00259   0.00765   0.00973   0.02488   0.03076
 Alpha virt. eigenvalues --    0.03696   0.04024   0.04493   0.04804   0.05853

 Mulliken charges:
               1
     1  C   -0.363141
     2  C   -0.070297
     3  C    0.028954
     4  N   -0.484225
     5  C   -0.705596
     6  C    1.243757
     7  C    0.700311
     8  C   -0.555476
     9  C   -0.647325
    10  C   -0.324139
    11  O   -0.431271
    12  C    0.902297
    13  O   -0.437101
    14  O   -0.281995
    15  H    0.169133
    16  H    0.179765
    17  H    0.120240
    18  H    0.153062
    19  H    0.137725
    20  H    0.180142
    21  H    0.149141
    22  H    0.150876
    23  H    0.185164
 Sum of Mulliken charges =  -0.00000

 Dipole moment (field-independent basis, Debye):
    X=              1.3651    Y=             -6.4833    Z=             -1.7282  Tot=              6.8471
 Quadrupole moment (field-independent basis, Debye-Ang):
   XX=           -101.4804   YY=            -86.8197   ZZ=            -80.0203
   XY=             -0.1513   XZ=              6.2871   YZ=              3.2560

 Normal termination of Gaussian 16 at Wed Aug 27 09:01:10 2025.
