 Gaussian 16, Revision C.02,
 Gaussian 16:  ES64L-G16RevC.02  7-Dec-2021

 ----------------------------------------------------------
 # td=(50-50,nstates=3) b3lyp/6-31+g(d,p) geom=connectivity
 ----------------------------------------------------------

 -------------------
 Title Card Required
 -------------------
 Symbolic Z-matrix:
 Charge =  0 Multiplicity = 1

                         Standard orientation:
 ---------------------------------------------------------------------
 Center     Atomic      Atomic             Coordinates (Angstroms)
 Number     Number       Type             X           Y           Z
 ---------------------------------------------------------------------
      1          6           0        3.175206   -1.877937    0.121331
      2          6           0        2.469281   -0.535397    0.282003
      3          8           0        3.154920    0.378466   -0.576085
      4          6           0        0.972566   -0.653112   -0.075726
      5          6           0        0.076709    0.480077    0.492143
      6          6           0        0.534481    1.820305    0.085048
      7          7           0        0.877767    2.892152   -0.204203
      8          6           0       -1.402133    0.315255    0.170290
      9          7           0       -2.229677    1.367938    0.170453
     10         16           0       -2.114789   -1.195975   -0.088921
     11          8           0       -3.614789   -0.888466   -0.276768
     12          1           0        2.758232   -2.625330    0.803699
     13          1           0        3.070510   -2.242330   -0.906050
     14          1           0        4.240919   -1.763185    0.334736
     15          1           0        2.566856   -0.205961    1.330185
     16          1           0        2.864062    1.286240   -0.415016
     17          1           0        0.874829   -0.695053   -1.164741
     18          1           0        0.583776   -1.592970    0.330518
     19          1           0        0.167693    0.461922    1.589535
     20          1           0       -3.206376    1.154623   -0.039326
     21          1           0       -1.898226    2.321869    0.167743
 ---------------------------------------------------------------------

 SCF Done:  E(RB3LYP) =  -892.775024801     A.U. after   16 cycles

 Excitation energies and oscillator strengths:

 Excited State   1:      Triplet-A      1.9688 eV  629.76 nm  f=0.0000  <S**2>=2.000
      46 -> 47         0.71319
      46 <- 47         0.15189
 This state for optimization and/or second-order correction.
 Total Energy, E(TD-HF/TD-DFT) =  -892.702674025
 Copying the excited state density for this state as the 1-particle RhoCI density.

 Excited State   2:      Triplet-A      3.9583 eV  313.23 nm  f=0.0000  <S**2>=2.000
      45 -> 47         0.68353

 Excited State   3:      Triplet-A      4.0278 eV  307.82 nm  f=0.0000  <S**2>=2.000
      45 -> 47        -0.12327
      46 -> 48         0.32950
      46 -> 49         0.49606
      46 -> 50         0.12725
      46 -> 51        -0.25647
      46 -> 53        -0.13576

 Excited State   4:      Singlet-A      4.0651 eV  305.00 nm  f=0.1185  <S**2>=0.000
      46 -> 47         0.67274
      46 -> 49        -0.17637

 Excited State   5:      Singlet-A      4.3557 eV  284.65 nm  f=0.0045  <S**2>=0.000
      46 -> 48         0.39880
      46 -> 49         0.51299
      46 -> 50         0.11281
      46 -> 51        -0.18817

 Excited State   6:      Singlet-A      4.3813 eV  282.98 nm  f=0.0014  <S**2>=0.000
      45 -> 47         0.69775

 The electronic state is 1-A.
 Alpha  occ. eigenvalues --  -88.97627 -19.17377 -19.13501 -14.41127 -14.38708
 Alpha  occ. eigenvalues --  -10.30949 -10.29835 -10.27844 -10.27268 -10.23662
 Alpha  occ. eigenvalues --  -10.19820  -8.02691  -5.99190  -5.98721  -5.98525
 Alpha  occ. eigenvalues --   -1.04476  -1.02166  -0.97559  -0.95287  -0.86683
 Alpha  occ. eigenvalues --   -0.79247  -0.75469  -0.70987  -0.62412  -0.61812
 Alpha  occ. eigenvalues --   -0.59387  -0.57103  -0.55143  -0.51794  -0.48426
 Alpha  occ. eigenvalues --   -0.46833  -0.44551  -0.43223  -0.41749  -0.41306
 Alpha  occ. eigenvalues --   -0.40722  -0.40089  -0.39495  -0.38543  -0.37637
 Alpha  occ. eigenvalues --   -0.37106  -0.35301  -0.34562  -0.30060  -0.27905
 Alpha  occ. eigenvalues --   -0.22578
 Alpha virt. eigenvalues --   -0.07164  -0.03062  -0.02820  -0.01140  -0.00419
 Alpha virt. eigenvalues --    0.00791   0.01343   0.01748   0.03022   0.03546
 Alpha virt. eigenvalues --    0.04375   0.04570   0.05416   0.06040   0.06602

 Mulliken charges:
               1
     1  C   -0.541850
     2  C    0.151606
     3  O   -0.485626
     4  C   -0.545252
     5  C    0.338058
     6  C    0.108795
     7  N   -0.486008
     8  C   -0.344416
     9  N   -0.474443
    10  S    0.754944
    11  O   -0.691679
    12  H    0.146315
    13  H    0.163080
    14  H    0.170189
    15  H    0.117839
    16  H    0.350831
    17  H    0.196751
    18  H    0.161985
    19  H    0.220756
    20  H    0.362668
    21  H    0.325457
 Sum of Mulliken charges =  -0.00000

 Dipole moment (field-independent basis, Debye):
    X=              1.8948    Y=              0.0993    Z=              2.5570  Tot=              3.1841
 Quadrupole moment (field-independent basis, Debye-Ang):
   XX=            -95.3674   YY=            -76.7903   ZZ=            -74.0894
   XY=            -14.4303   XZ=              2.8009   YZ=              1.1336

 Normal termination of Gaussian 16 at Tue Aug 26 09:05:36 2025.
