 Gaussian 16, Revision C.02,
 Gaussian 16:  ES64L-G16RevC.02  7-Dec-2021

 ----------------------------------------------------------
 # td=(50-50,nstates=3) b3lyp/6-31+g(d,p) geom=connectivity
 ----------------------------------------------------------

 -------------------
 Title Card Required
 -------------------
 Symbolic Z-matrix:
 Charge =  0 Multiplicity = 1

                         Standard orientation:
 ---------------------------------------------------------------------
 Center     Atomic      Atomic             Coordinates (Angstroms)
 Number     Number       Type             X           Y           Z
 ---------------------------------------------------------------------
      1          6           0       -4.537518   -1.705832    1.991021
      2          6           0       -5.092003   -1.003632    0.740672
      3          6           0       -5.520966   -2.023699   -0.326327
      4          6           0       -4.133132    0.072792    0.182897
      5          6           0       -2.775173   -0.459486   -0.318390
      6          6           0       -1.946477    0.644048   -0.948733
      7          8           0       -2.407431    1.431969   -1.755483
      8          6           0       -0.501148    0.819959   -0.509438
      9          6           0       -0.002998    2.056239   -0.048424
     10          6           0       -0.807968    3.307417    0.092659
     11          7           0        1.297696    2.159189    0.340539
     12          8           0        1.771588    3.269026    0.781359
     13          6           0        2.129948    1.037759    0.259791
     14          6           0        3.478130    1.132027    0.653349
     15          6           0        4.294735    0.022828    0.564432
     16          6           0        3.774387   -1.197779    0.076908
     17         17           0        4.837239   -2.583886   -0.026158
     18          6           0        2.457476   -1.317472   -0.318186
     19          6           0        1.625952   -0.187176   -0.219616
     20          7           0        0.285839   -0.280174   -0.608523
     21          8           0       -0.167066   -1.390531   -1.075065
     22          1           0       -5.293168   -2.364537    2.433235
     23          1           0       -3.664986   -2.326177    1.755053
     24          1           0       -4.238204   -0.981345    2.757723
     25          1           0       -5.995491   -0.457555    1.048944
     26          1           0       -5.918829   -1.526322   -1.218231
     27          1           0       -6.302094   -2.685674    0.063721
     28          1           0       -4.685474   -2.659977   -0.640768
     29          1           0       -4.624043    0.597827   -0.643554
     30          1           0       -3.956367    0.821716    0.967440
     31          1           0       -2.205322   -0.946068    0.477289
     32          1           0       -2.920733   -1.216023   -1.097478
     33          1           0       -1.846063    3.152641   -0.188380
     34          1           0       -0.733219    3.673470    1.122020
     35          1           0       -0.380334    4.091838   -0.541118
     36          1           0        3.837263    2.086343    1.017596
     37          1           0        5.335043    0.080577    0.863774
     38          1           0        2.038007   -2.239440   -0.698868
 ---------------------------------------------------------------------

 SCF Done:  E(RB3LYP) =  -1377.15791258     A.U. after   17 cycles

 Excitation energies and oscillator strengths:

 Excited State   1:      Triplet-A      0.9671 eV 1282.04 nm  f=0.0000  <S**2>=2.000
      81 -> 82         0.73591
      81 -> 85        -0.16314
      81 <- 82         0.28081
 This state for optimization and/or second-order correction.
 Total Energy, E(TD-HF/TD-DFT) =  -1377.12237274
 Copying the excited state density for this state as the 1-particle RhoCI density.

 Excited State   2:      Triplet-A      2.8898 eV  429.03 nm  f=0.0000  <S**2>=2.000
      75 -> 82         0.17039
      80 -> 82         0.15097
      81 -> 83         0.64850

 Excited State   3:      Singlet-A      2.9495 eV  420.35 nm  f=0.0792  <S**2>=0.000
      81 -> 82         0.65616
      81 -> 83         0.20574
      81 -> 85         0.14085

 Excited State   4:      Triplet-A      3.0548 eV  405.86 nm  f=0.0000  <S**2>=2.000
      78 -> 83         0.10232
      80 -> 82         0.60616
      80 -> 83         0.16392
      80 -> 84         0.14715
      81 -> 83        -0.15824

 Excited State   5:      Singlet-A      3.3692 eV  367.99 nm  f=0.0018  <S**2>=0.000
      77 -> 82        -0.15676
      80 -> 82         0.63296
      81 -> 83        -0.17718

 Excited State   6:      Singlet-A      3.4232 eV  362.19 nm  f=0.0556  <S**2>=0.000
      77 -> 82        -0.15538
      79 -> 82        -0.20927
      80 -> 82         0.12833
      81 -> 82        -0.17371
      81 -> 83         0.60021

 The electronic state is 1-A.
 Alpha  occ. eigenvalues -- -101.57962 -19.17734 -19.16329 -19.15871 -14.51608
 Alpha  occ. eigenvalues --  -14.50932 -10.31482 -10.29436 -10.28719 -10.28706
 Alpha  occ. eigenvalues --  -10.28441 -10.28331 -10.24582 -10.24282 -10.24198
 Alpha  occ. eigenvalues --  -10.20950 -10.20572 -10.20154 -10.19709 -10.18315
 Alpha  occ. eigenvalues --  -10.18149  -9.49458  -7.25880  -7.24894  -7.24847
 Alpha  occ. eigenvalues --   -1.14801  -1.13495  -1.07595  -0.95641  -0.92421
 Alpha  occ. eigenvalues --   -0.88024  -0.87014  -0.82723  -0.81835  -0.80880
 Alpha  occ. eigenvalues --   -0.76978  -0.74478  -0.72765  -0.69088  -0.67017
 Alpha  occ. eigenvalues --   -0.66700  -0.64652  -0.62570  -0.59976  -0.56427
 Alpha  occ. eigenvalues --   -0.55673  -0.53581  -0.53022  -0.50754  -0.50513
 Alpha  occ. eigenvalues --   -0.49566  -0.48924  -0.48191  -0.47898  -0.47530
 Alpha  occ. eigenvalues --   -0.46076  -0.45031  -0.44369  -0.43711  -0.43031
 Alpha  occ. eigenvalues --   -0.42723  -0.42429  -0.41692  -0.41498  -0.40453
 Alpha  occ. eigenvalues --   -0.40116  -0.38490  -0.37892  -0.36076  -0.35785
 Alpha  occ. eigenvalues --   -0.34103  -0.33653  -0.33347  -0.32844  -0.30856
 Alpha  occ. eigenvalues --   -0.30477  -0.29202  -0.28752  -0.28577  -0.27829
 Alpha  occ. eigenvalues --   -0.22869
 Alpha virt. eigenvalues --   -0.11594  -0.07777  -0.04688  -0.03305  -0.01018
 Alpha virt. eigenvalues --   -0.00836   0.00014   0.00804   0.01285   0.01863
 Alpha virt. eigenvalues --    0.02400   0.02657   0.02923   0.03362   0.04298

 Mulliken charges:
               1
     1  C   -0.542458
     2  C    0.272530
     3  C   -0.549143
     4  C   -0.476829
     5  C   -0.133516
     6  C   -0.810688
     7  O   -0.351777
     8  C    1.297124
     9  C    0.285070
    10  C   -0.670101
    11  N   -0.461534
    12  O    0.057620
    13  C    0.287126
    14  C   -0.718916
    15  C   -0.085801
    16  C    0.241720
    17  Cl   0.280877
    18  C   -0.429822
    19  C    0.226708
    20  N   -0.569407
    21  O    0.117491
    22  H    0.146224
    23  H    0.146741
    24  H    0.139087
    25  H    0.131050
    26  H    0.145936
    27  H    0.145792
    28  H    0.145698
    29  H    0.170520
    30  H    0.136681
    31  H    0.156313
    32  H    0.190254
    33  H    0.165828
    34  H    0.185019
    35  H    0.190042
    36  H    0.186575
    37  H    0.159275
    38  H    0.192690
 Sum of Mulliken charges =  -0.00000

 Dipole moment (field-independent basis, Debye):
    X=              0.1019    Y=             -0.6112    Z=              2.1974  Tot=              2.2831
 Quadrupole moment (field-independent basis, Debye-Ang):
   XX=           -121.0895   YY=           -143.4334   ZZ=           -138.5274
   XY=              0.0279   XZ=             -4.7621   YZ=             -0.9371

 Normal termination of Gaussian 16 at Tue Oct  7 12:18:27 2025.
