 Gaussian 16, Revision C.02,
 Gaussian 16:  ES64L-G16RevC.02  7-Dec-2021

 ----------------------------------------------------------
 # td=(50-50,nstates=3) b3lyp/6-31+g(d,p) geom=connectivity
 ----------------------------------------------------------

 -------------------
 Title Card Required
 -------------------
 Symbolic Z-matrix:
 Charge =  0 Multiplicity = 1

                         Standard orientation:
 ---------------------------------------------------------------------
 Center     Atomic      Atomic             Coordinates (Angstroms)
 Number     Number       Type             X           Y           Z
 ---------------------------------------------------------------------
      1          6           0        7.148958    0.369736    0.241352
      2          8           0        5.936182   -0.316064    0.498487
      3          6           0        5.552117   -1.192256   -0.556359
      4         14           0        3.890392   -2.027340   -0.127846
      5          6           0        3.527960   -3.323478   -1.453489
      6          6           0        3.970776   -2.790078    1.591578
      7          6           0        2.560311   -0.753062   -0.169893
      8          6           0        1.683827    0.100190   -0.178918
      9          6           0        0.626973    1.069868   -0.214262
     10          6           0        0.794943    2.310164    0.316674
     11         14           0       -0.257577    3.888252    0.291621
     12          6           0       -1.446430    3.933631    1.767796
     13          6           0        0.993066    5.296588    0.485939
     14          6           0       -1.202708    4.120473   -1.328556
     15          6           0       -0.605966    0.572330   -0.879476
     16          6           0       -1.830682    0.613355   -0.343182
     17          6           0       -3.056607    0.027645   -1.032138
     18          6           0       -4.081660    1.070996   -1.228710
     19          7           0       -4.876749    1.906607   -1.364679
     20          6           0       -3.624453   -1.153788   -0.243052
     21          6           0       -4.349126   -0.929142    0.977694
     22          6           0       -4.787949   -2.006028    1.668885
     23          8           0       -4.576816   -3.274481    1.270904
     24          6           0       -3.877844   -3.579644    0.080373
     25          8           0       -3.736660   -4.746685   -0.201487
     26          6           0       -3.408447   -2.429930   -0.668981
     27          1           0        7.349862    1.007189    1.105916
     28          1           0        7.985955   -0.333519    0.108594
     29          1           0        7.069796    0.996928   -0.659994
     30          1           0        5.463098   -0.639056   -1.507697
     31          1           0        6.324987   -1.967544   -0.712402
     32          1           0        2.562003   -3.806496   -1.270638
     33          1           0        4.297096   -4.104584   -1.457797
     34          1           0        3.493060   -2.876306   -2.452917
     35          1           0        4.216581   -2.026379    2.335635
     36          1           0        3.013947   -3.245919    1.867306
     37          1           0        4.743677   -3.566317    1.634012
     38          1           0        1.769634    2.452572    0.789622
     39          1           0       -1.920867    4.919729    1.839595
     40          1           0       -2.246673    3.191482    1.678398
     41          1           0       -0.918262    3.747954    2.709774
     42          1           0        0.485592    6.267982    0.507216
     43          1           0        1.708711    5.313333   -0.344089
     44          1           0        1.564363    5.200399    1.416699
     45          1           0       -0.536908    4.011861   -2.192088
     46          1           0       -2.029362    3.414905   -1.446242
     47          1           0       -1.626836    5.131286   -1.361796
     48          1           0       -0.458709    0.077760   -1.840233
     49          1           0       -1.989925    1.042897    0.642315
     50          1           0       -2.763775   -0.330243   -2.025366
     51          1           0       -4.565074    0.068511    1.339948
     52          1           0       -5.347806   -1.959545    2.595959
     53          1           0       -2.870346   -2.655482   -1.582702
 ---------------------------------------------------------------------

 SCF Done:  E(RB3LYP) =  -1637.81321395     A.U. after   18 cycles

 Excitation energies and oscillator strengths:

 Excited State   1:      Triplet-A      2.6145 eV  474.21 nm  f=0.0000  <S**2>=2.000
     102 ->104         0.11570
     103 ->104        -0.21862
     103 ->105         0.62415
     103 ->106        -0.11547
     103 <-105         0.10620
 This state for optimization and/or second-order correction.
 Total Energy, E(TD-HF/TD-DFT) =  -1637.71713164
 Copying the excited state density for this state as the 1-particle RhoCI density.

 Excited State   2:      Triplet-A      2.6527 eV  467.39 nm  f=0.0000  <S**2>=2.000
     102 ->104         0.66871
     102 ->105         0.12896
     103 ->105        -0.12548

 Excited State   3:      Triplet-A      3.6458 eV  340.07 nm  f=0.0000  <S**2>=2.000
      97 ->104        -0.10608
      97 ->105         0.14535
      99 ->104         0.20470
      99 ->105        -0.18929
      99 ->106        -0.12861
     100 ->104        -0.17606
     100 ->105         0.16055
     100 ->106         0.10156
     103 ->104         0.39022
     103 ->105         0.14285
     103 ->106        -0.23396

 Excited State   4:      Singlet-A      3.7848 eV  327.58 nm  f=0.0172  <S**2>=0.000
     103 ->104         0.70214

 Excited State   5:      Singlet-A      4.2984 eV  288.44 nm  f=0.0706  <S**2>=0.000
     102 ->104         0.68492

 Excited State   6:      Singlet-A      4.3900 eV  282.42 nm  f=0.0625  <S**2>=0.000
      98 ->104         0.11910
      99 ->105        -0.11297
     100 ->104         0.43021
     100 ->105        -0.35442
     101 ->104         0.11302
     102 ->104        -0.11466
     103 ->105         0.33402

 The electronic state is 1-A.
 Alpha  occ. eigenvalues --  -66.14511 -66.13704 -19.24515 -19.16337 -19.15380
 Alpha  occ. eigenvalues --  -14.36491 -10.34016 -10.29831 -10.28177 -10.26832
 Alpha  occ. eigenvalues --  -10.25660 -10.24337 -10.23694 -10.23381 -10.23380
 Alpha  occ. eigenvalues --  -10.23267 -10.23215 -10.22492 -10.20341 -10.19811
 Alpha  occ. eigenvalues --  -10.18092 -10.17562 -10.17455 -10.17092 -10.17020
 Alpha  occ. eigenvalues --  -10.16984  -5.28825  -5.28056  -3.64808  -3.64678
 Alpha  occ. eigenvalues --   -3.64639  -3.63986  -3.63918  -3.63903  -1.13962
 Alpha  occ. eigenvalues --   -1.04977  -1.03695  -0.93553  -0.89137  -0.85325
 Alpha  occ. eigenvalues --   -0.81854  -0.79650  -0.75716  -0.73840  -0.72817
 Alpha  occ. eigenvalues --   -0.71670  -0.70518  -0.69333  -0.68752  -0.68707
 Alpha  occ. eigenvalues --   -0.68506  -0.65802  -0.64140  -0.63910  -0.58964
 Alpha  occ. eigenvalues --   -0.57477  -0.55603  -0.53899  -0.52041  -0.51039
 Alpha  occ. eigenvalues --   -0.49956  -0.49304  -0.48826  -0.48533  -0.47721
 Alpha  occ. eigenvalues --   -0.47490  -0.46699  -0.45457  -0.45400  -0.43964
 Alpha  occ. eigenvalues --   -0.42409  -0.42206  -0.41876  -0.41717  -0.41464
 Alpha  occ. eigenvalues --   -0.41289  -0.40447  -0.40249  -0.40059  -0.39977
 Alpha  occ. eigenvalues --   -0.39619  -0.39206  -0.38994  -0.38836  -0.38612
 Alpha  occ. eigenvalues --   -0.38595  -0.36451  -0.36192  -0.35423  -0.35295
 Alpha  occ. eigenvalues --   -0.34358  -0.34016  -0.32547  -0.32051  -0.31331
 Alpha  occ. eigenvalues --   -0.30826  -0.30332  -0.29824  -0.29273  -0.27356
 Alpha  occ. eigenvalues --   -0.26665  -0.26112  -0.24664
 Alpha virt. eigenvalues --   -0.08925  -0.07015  -0.03068  -0.02482  -0.01660
 Alpha virt. eigenvalues --   -0.01111  -0.00822  -0.00244   0.00102   0.00352
 Alpha virt. eigenvalues --    0.01050   0.01263   0.01561   0.01725   0.01897

 Mulliken charges:
               1
     1  C   -0.174413
     2  O   -0.300694
     3  C   -0.516960
     4  Si   1.375671
     5  C   -0.695480
     6  C   -0.688957
     7  C   -0.778693
     8  C    0.436856
     9  C   -0.159898
    10  C   -0.885176
    11  Si   1.191925
    12  C   -0.635725
    13  C   -0.707360
    14  C   -0.691972
    15  C   -0.087728
    16  C   -0.181739
    17  C    0.558101
    18  C   -0.432086
    19  N   -0.349851
    20  C   -0.193476
    21  C    0.078336
    22  C    0.040815
    23  O   -0.312561
    24  C    0.240588
    25  O   -0.466870
    26  C    0.146741
    27  H    0.144004
    28  H    0.123773
    29  H    0.125949
    30  H    0.133593
    31  H    0.129919
    32  H    0.171469
    33  H    0.162478
    34  H    0.164720
    35  H    0.184379
    36  H    0.165543
    37  H    0.159332
    38  H    0.152352
    39  H    0.164340
    40  H    0.150765
    41  H    0.165577
    42  H    0.160933
    43  H    0.165832
    44  H    0.163469
    45  H    0.162804
    46  H    0.180174
    47  H    0.162710
    48  H    0.133116
    49  H    0.141388
    50  H    0.170080
    51  H    0.151320
    52  H    0.158356
    53  H    0.142231
 Sum of Mulliken charges =  -0.00000

 Dipole moment (field-independent basis, Debye):
    X=              3.5108    Y=              2.4486    Z=              0.4288  Tot=              4.3017
 Quadrupole moment (field-independent basis, Debye-Ang):
   XX=           -174.8133   YY=           -197.3301   ZZ=           -167.6450
   XY=             -8.2237   XZ=            -16.4186   YZ=              5.0263

 Normal termination of Gaussian 16 at Tue Aug 26 09:13:50 2025.
