 Gaussian 16, Revision C.02,
 Gaussian 16:  ES64L-G16RevC.02  7-Dec-2021

 ----------------------------------------------------------
 # td=(50-50,nstates=3) b3lyp/6-31+g(d,p) geom=connectivity
 ----------------------------------------------------------

 -------------------
 Title Card Required
 -------------------
 Symbolic Z-matrix:
 Charge =  0 Multiplicity = 1

                         Standard orientation:
 ---------------------------------------------------------------------
 Center     Atomic      Atomic             Coordinates (Angstroms)
 Number     Number       Type             X           Y           Z
 ---------------------------------------------------------------------
      1          6           0        0.371574   -3.564587    0.303810
      2          6           0       -0.077245   -2.310844    0.164472
      3          6           0       -1.462951   -1.766270    0.112955
      4          6           0       -2.812280   -2.082645    0.152164
      5          6           0       -3.702512   -1.004848    0.030279
      6          6           0       -3.235907    0.319305   -0.127887
      7          6           0       -4.194877    1.380101   -0.251181
      8          7           0       -4.968695    2.244921   -0.349327
      9          6           0       -1.854528    0.631048   -0.169705
     10          6           0       -0.994085   -0.445520   -0.038854
     11          6           0        0.425629   -0.879428    0.006114
     12          6           0        1.545334   -0.127607   -0.107683
     13          6           0        3.006242   -0.529103   -0.125553
     14          6           0        3.302261   -1.958543    0.337306
     15          6           0        3.607645   -0.277324   -1.527487
     16          8           0        1.283442    1.204569   -0.370958
     17          6           0        2.014370    2.254632    0.313529
     18          6           0        1.576250    3.553514   -0.351560
     19          6           0        1.729423    2.228665    1.814153
     20          1           0        1.418755   -3.829375    0.330612
     21          1           0       -0.343119   -4.376680    0.400099
     22          1           0       -3.184584   -3.095830    0.267838
     23          1           0       -4.773204   -1.178985    0.053360
     24          1           0       -1.517464    1.651298   -0.303891
     25          1           0        3.524355    0.138531    0.576460
     26          1           0        4.383401   -2.086962    0.453220
     27          1           0        2.830589   -2.184445    1.297719
     28          1           0        2.965352   -2.689286   -0.402683
     29          1           0        4.686288   -0.467977   -1.515248
     30          1           0        3.443545    0.749806   -1.863626
     31          1           0        3.150354   -0.947437   -2.263492
     32          1           0        3.089288    2.117170    0.139059
     33          1           0        2.125062    4.398777    0.075760
     34          1           0        1.769992    3.520877   -1.427437
     35          1           0        0.505833    3.724931   -0.198739
     36          1           0        2.292963    3.021671    2.317288
     37          1           0        2.016784    1.272539    2.262752
     38          1           0        0.663080    2.387115    2.004684
 ---------------------------------------------------------------------

 SCF Done:  E(RB3LYP) =  -789.193444686     A.U. after   16 cycles

 Excitation energies and oscillator strengths:

 Excited State   1:      Triplet-A      2.5424 eV  487.66 nm  f=0.0000  <S**2>=2.000
      67 -> 69         0.43182
      68 -> 69        -0.30504
      68 -> 70         0.43125
 This state for optimization and/or second-order correction.
 Total Energy, E(TD-HF/TD-DFT) =  -789.100011672
 Copying the excited state density for this state as the 1-particle RhoCI density.

 Excited State   2:      Triplet-A      2.8750 eV  431.25 nm  f=0.0000  <S**2>=2.000
      67 -> 69         0.41236
      67 -> 70         0.12905
      68 -> 69         0.54259

 Excited State   3:      Triplet-A      3.1839 eV  389.41 nm  f=0.0000  <S**2>=2.000
      67 -> 69        -0.32231
      68 -> 69         0.28452
      68 -> 70         0.51369

 Excited State   4:      Singlet-A      3.4697 eV  357.33 nm  f=0.0307  <S**2>=0.000
      67 -> 70        -0.10929
      68 -> 69         0.68320
      68 -> 70         0.12429

 Excited State   5:      Singlet-A      4.3208 eV  286.95 nm  f=0.1901  <S**2>=0.000
      67 -> 69         0.45834
      67 -> 70        -0.16739
      68 -> 69        -0.14081
      68 -> 70         0.47815

 Excited State   6:      Singlet-A      4.4803 eV  276.73 nm  f=0.3070  <S**2>=0.000
      66 -> 69         0.18689
      67 -> 69        -0.32849
      67 -> 70         0.37559
      68 -> 70         0.43952

 The electronic state is 1-A.
 Alpha  occ. eigenvalues --  -19.18491 -14.33971 -10.26463 -10.26254 -10.24364
 Alpha  occ. eigenvalues --  -10.23186 -10.22978 -10.22207 -10.22007 -10.21841
 Alpha  occ. eigenvalues --  -10.21761 -10.21473 -10.21430 -10.21371 -10.19942
 Alpha  occ. eigenvalues --  -10.19438 -10.19418 -10.19358 -10.19266  -1.06601
 Alpha  occ. eigenvalues --   -0.91489  -0.90360  -0.84773  -0.82659  -0.80154
 Alpha  occ. eigenvalues --   -0.77833  -0.75442  -0.73000  -0.70778  -0.70232
 Alpha  occ. eigenvalues --   -0.68827  -0.64313  -0.62378  -0.60400  -0.57075
 Alpha  occ. eigenvalues --   -0.55116  -0.53947  -0.50789  -0.50235  -0.48289
 Alpha  occ. eigenvalues --   -0.47505  -0.46975  -0.46247  -0.45150  -0.44932
 Alpha  occ. eigenvalues --   -0.43432  -0.42500  -0.41895  -0.40714  -0.40479
 Alpha  occ. eigenvalues --   -0.40004  -0.39904  -0.38616  -0.37913  -0.37405
 Alpha  occ. eigenvalues --   -0.37209  -0.36626  -0.36278  -0.35926  -0.35581
 Alpha  occ. eigenvalues --   -0.34599  -0.34075  -0.33019  -0.31921  -0.30264
 Alpha  occ. eigenvalues --   -0.28465  -0.24499  -0.22468
 Alpha virt. eigenvalues --   -0.07351  -0.05170  -0.01018   0.00282   0.00480
 Alpha virt. eigenvalues --    0.00750   0.01278   0.01689   0.02093   0.02688
 Alpha virt. eigenvalues --    0.03072   0.03200   0.03663   0.04159   0.04298

 Mulliken charges:
               1
     1  C   -0.284588
     2  C    0.367711
     3  C   -0.377851
     4  C   -0.071102
     5  C   -0.083458
     6  C    0.302700
     7  C   -0.107461
     8  N   -0.545176
     9  C   -0.041239
    10  C   -0.064553
    11  C   -0.070282
    12  C   -0.220349
    13  C    0.543601
    14  C   -0.585403
    15  C   -0.523550
    16  O   -0.296960
    17  C    0.269422
    18  C   -0.541205
    19  C   -0.479560
    20  H    0.132335
    21  H    0.139034
    22  H    0.139716
    23  H    0.148355
    24  H    0.154630
    25  H    0.137083
    26  H    0.149093
    27  H    0.157516
    28  H    0.148449
    29  H    0.147041
    30  H    0.153840
    31  H    0.157711
    32  H    0.120845
    33  H    0.148142
    34  H    0.157059
    35  H    0.156081
    36  H    0.149868
    37  H    0.151678
    38  H    0.160826
 Sum of Mulliken charges =  -0.00000

 Dipole moment (field-independent basis, Debye):
    X=              5.9866    Y=             -2.4455    Z=              1.1736  Tot=              6.5725
 Quadrupole moment (field-independent basis, Debye-Ang):
   XX=           -126.9243   YY=           -111.6633   ZZ=           -118.4002
   XY=             20.7886   XZ=             -1.4370   YZ=              1.8695

 Normal termination of Gaussian 16 at Tue Aug 26 09:06:28 2025.
