 Gaussian 16, Revision C.02,
 Gaussian 16:  ES64L-G16RevC.02  7-Dec-2021

 ----------------------------------------------------------
 # td=(50-50,nstates=3) b3lyp/6-31+g(d,p) geom=connectivity
 ----------------------------------------------------------

 -------------------
 Title Card Required
 -------------------
 Symbolic Z-matrix:
 Charge =  0 Multiplicity = 1

                         Standard orientation:
 ---------------------------------------------------------------------
 Center     Atomic      Atomic             Coordinates (Angstroms)
 Number     Number       Type             X           Y           Z
 ---------------------------------------------------------------------
      1          6           0        3.945049    0.020032    2.249887
      2          6           0        3.661968    0.225288    0.950605
      3          6           0        4.754292    0.381914    0.018254
      4          7           0        5.617731    0.511192   -0.752179
      5          6           0        2.278869    0.325309    0.402188
      6          6           0        1.485992    1.444474    0.445651
      7          6           0        1.772516    2.824353    1.007654
      8          6           0        1.559016    2.873375    2.537900
      9          6           0        3.140584    3.413527    0.617287
     10          6           0        0.160893    1.100988   -0.141135
     11          6           0       -0.964010    2.053562   -0.337203
     12          6           0       -0.821943    3.074002   -1.297506
     13          6           0       -1.830126    4.005061   -1.558425
     14          6           0       -1.659010    5.073894   -2.613301
     15          6           0       -3.015536    3.908345   -0.813518
     16          6           0       -3.170423    2.909890    0.143868
     17          6           0       -2.162641    1.966039    0.401354
     18          6           0       -2.392803    0.911187    1.464628
     19          6           0       -3.146967   -0.343704    1.028480
     20          6           0       -3.390535   -1.353902    1.974108
     21          6           0       -4.078933   -2.516412    1.630942
     22          6           0       -4.555867   -2.719167    0.325311
     23          6           0       -5.330461   -3.965800   -0.036271
     24          6           0       -4.308491   -1.714442   -0.616337
     25          6           0       -3.618258   -0.545728   -0.272829
     26          6           0        0.177522   -0.205032   -0.506847
     27          6           0        1.498349   -0.780195   -0.217948
     28          6           0        1.837872   -2.062267   -0.530899
     29          6           0        3.215025   -2.695734   -0.415565
     30          6           0        3.174137   -4.093946    0.235190
     31          6           0        3.907240   -2.756704   -1.797909
     32          6           0        0.773460   -2.965354   -1.137563
     33          6           0       -0.275978   -3.541653   -0.210696
     34          8           0        0.812705   -3.244714   -2.324703
     35          1           0        3.144957   -0.109221    2.970927
     36          1           0        4.968683   -0.026725    2.608565
     37          1           0        1.013582    3.484509    0.573526
     38          1           0        1.635429    3.906229    2.896276
     39          1           0        0.570738    2.492847    2.815924
     40          1           0        2.313800    2.277797    3.060931
     41          1           0        3.182804    4.468186    0.911572
     42          1           0        3.307890    3.357807   -0.462818
     43          1           0        3.970402    2.903429    1.112998
     44          1           0        0.104448    3.124388   -1.864963
     45          1           0       -0.637188    5.090431   -3.002790
     46          1           0       -2.334967    4.906071   -3.460506
     47          1           0       -1.883647    6.068863   -2.212725
     48          1           0       -3.819424    4.621183   -0.982007
     49          1           0       -4.096009    2.856200    0.712539
     50          1           0       -1.429826    0.601378    1.885942
     51          1           0       -2.953126    1.369451    2.290558
     52          1           0       -3.034941   -1.226892    2.994844
     53          1           0       -4.250054   -3.278459    2.388295
     54          1           0       -4.891413   -4.858529    0.421934
     55          1           0       -6.369357   -3.901098    0.311139
     56          1           0       -5.355386   -4.119726   -1.119139
     57          1           0       -4.658195   -1.841211   -1.638289
     58          1           0       -3.449255    0.212528   -1.031078
     59          1           0       -0.629964   -0.728638   -1.000438
     60          1           0        3.820227   -2.058639    0.229810
     61          1           0        4.194611   -4.472953    0.350388
     62          1           0        2.713511   -4.067127    1.228755
     63          1           0        2.626453   -4.814878   -0.382018
     64          1           0        4.916213   -3.166208   -1.678006
     65          1           0        3.996528   -1.760665   -2.238786
     66          1           0        3.349560   -3.390330   -2.492046
     67          1           0       -0.863429   -2.745274    0.257101
     68          1           0       -0.933223   -4.208436   -0.772137
     69          1           0        0.208997   -4.094113    0.602479
 ---------------------------------------------------------------------

 SCF Done:  E(RB3LYP) =  -1370.49856102     A.U. after   16 cycles

 Excitation energies and oscillator strengths:

 Excited State   1:      Triplet-A      2.0109 eV  616.56 nm  f=0.0000  <S**2>=2.000
     119 ->122        -0.11071
     121 ->122         0.68260
 This state for optimization and/or second-order correction.
 Total Energy, E(TD-HF/TD-DFT) =  -1370.42466173
 Copying the excited state density for this state as the 1-particle RhoCI density.

 Excited State   2:      Triplet-A      2.4237 eV  511.54 nm  f=0.0000  <S**2>=2.000
     115 ->122        -0.29005
     117 ->122        -0.10103
     118 ->122         0.48485
     119 ->122        -0.37438

 Excited State   3:      Singlet-A      3.0850 eV  401.89 nm  f=0.0076  <S**2>=0.000
     121 ->122         0.70362

 Excited State   4:      Triplet-A      3.1869 eV  389.05 nm  f=0.0000  <S**2>=2.000
     114 ->123         0.58686
     115 ->123        -0.21570
     116 ->123         0.13458
     121 ->123        -0.20194
     114 <-123         0.11047

 Excited State   5:      Singlet-A      3.4972 eV  354.52 nm  f=0.0018  <S**2>=0.000
     119 ->123        -0.10576
     121 ->123         0.69383

 Excited State   6:      Singlet-A      3.7034 eV  334.78 nm  f=0.0121  <S**2>=0.000
     115 ->122        -0.24471
     116 ->122         0.37327
     116 ->124         0.10953
     117 ->122         0.40309
     117 ->124         0.11664
     118 ->122        -0.25942
     120 ->122         0.12631

 The electronic state is 1-A.
 Alpha  occ. eigenvalues --  -19.16141 -14.34844 -10.29589 -10.25762 -10.23939
 Alpha  occ. eigenvalues --  -10.23237 -10.22692 -10.21868 -10.21365 -10.21169
 Alpha  occ. eigenvalues --  -10.21015 -10.20930 -10.20746 -10.20631 -10.20590
 Alpha  occ. eigenvalues --  -10.20518 -10.20452 -10.20402 -10.20127 -10.19810
 Alpha  occ. eigenvalues --  -10.19756 -10.19698 -10.19648 -10.19641 -10.19615
 Alpha  occ. eigenvalues --  -10.19482 -10.19332 -10.19219 -10.19217 -10.19154
 Alpha  occ. eigenvalues --  -10.19094 -10.18633 -10.18012 -10.17716  -1.05799
 Alpha  occ. eigenvalues --   -0.91717  -0.89328  -0.87191  -0.86218  -0.83584
 Alpha  occ. eigenvalues --   -0.82781  -0.80747  -0.80193  -0.78042  -0.77034
 Alpha  occ. eigenvalues --   -0.76155  -0.74950  -0.73591  -0.73108  -0.71441
 Alpha  occ. eigenvalues --   -0.69165  -0.69078  -0.69020  -0.66898  -0.65788
 Alpha  occ. eigenvalues --   -0.65013  -0.61855  -0.61338  -0.60470  -0.59819
 Alpha  occ. eigenvalues --   -0.59130  -0.57673  -0.56660  -0.53513  -0.52300
 Alpha  occ. eigenvalues --   -0.50872  -0.50356  -0.49637  -0.48911  -0.48532
 Alpha  occ. eigenvalues --   -0.47056  -0.46728  -0.45962  -0.45665  -0.45415
 Alpha  occ. eigenvalues --   -0.45347  -0.45129  -0.44314  -0.43650  -0.43277
 Alpha  occ. eigenvalues --   -0.42741  -0.42637  -0.42254  -0.42184  -0.41887
 Alpha  occ. eigenvalues --   -0.41825  -0.41582  -0.41096  -0.40707  -0.40524
 Alpha  occ. eigenvalues --   -0.40209  -0.40051  -0.39273  -0.38799  -0.38713
 Alpha  occ. eigenvalues --   -0.38593  -0.37831  -0.37654  -0.37165  -0.36585
 Alpha  occ. eigenvalues --   -0.35942  -0.35634  -0.35327  -0.35239  -0.34934
 Alpha  occ. eigenvalues --   -0.34703  -0.34570  -0.34475  -0.34197  -0.33945
 Alpha  occ. eigenvalues --   -0.33703  -0.33342  -0.33019  -0.28703  -0.26655
 Alpha  occ. eigenvalues --   -0.25957  -0.25704  -0.24967  -0.24395  -0.24131
 Alpha  occ. eigenvalues --   -0.22596
 Alpha virt. eigenvalues --   -0.08529  -0.06601  -0.03597  -0.02659  -0.01976
 Alpha virt. eigenvalues --   -0.01509  -0.01353  -0.00793   0.00026   0.00188
 Alpha virt. eigenvalues --    0.00689   0.01256   0.01552   0.01829   0.02126

 Mulliken charges:
               1
     1  C   -0.386089
     2  C    0.210686
     3  C   -0.381851
     4  N   -0.384701
     5  C   -0.064219
     6  C   -0.209667
     7  C    0.449902
     8  C   -0.719264
     9  C   -0.460139
    10  C    0.000947
    11  C   -0.481663
    12  C   -0.613489
    13  C    0.412293
    14  C   -0.614563
    15  C   -0.142639
    16  C   -0.007685
    17  C    0.561861
    18  C    0.045738
    19  C    0.337071
    20  C    0.036699
    21  C   -0.108438
    22  C    0.298226
    23  C   -0.567104
    24  C   -0.351712
    25  C   -0.677091
    26  C   -0.181116
    27  C    0.368865
    28  C   -0.172530
    29  C    0.204024
    30  C   -0.588966
    31  C   -0.595359
    32  C    0.490398
    33  C   -0.544204
    34  O   -0.313928
    35  H    0.146468
    36  H    0.158205
    37  H    0.134857
    38  H    0.145359
    39  H    0.143542
    40  H    0.142767
    41  H    0.141963
    42  H    0.154884
    43  H    0.156140
    44  H    0.115454
    45  H    0.150274
    46  H    0.165427
    47  H    0.160325
    48  H    0.121353
    49  H    0.117150
    50  H    0.157270
    51  H    0.152087
    52  H    0.114905
    53  H    0.113916
    54  H    0.152767
    55  H    0.164080
    56  H    0.150709
    57  H    0.115783
    58  H    0.125225
    59  H    0.130200
    60  H    0.134554
    61  H    0.153696
    62  H    0.146653
    63  H    0.163100
    64  H    0.145858
    65  H    0.167400
    66  H    0.176729
    67  H    0.190097
    68  H    0.172099
    69  H    0.168410
 Sum of Mulliken charges =  -0.00000

 Dipole moment (field-independent basis, Debye):
    X=             -3.2646    Y=             -0.0464    Z=              4.5524  Tot=              5.6022
 Quadrupole moment (field-independent basis, Debye-Ang):
   XX=           -221.5196   YY=           -192.2352   ZZ=           -206.7107
   XY=             -4.0811   XZ=             15.9524   YZ=            -11.1559

 Normal termination of Gaussian 16 at Tue Aug 26 09:28:02 2025.
