 Gaussian 16, Revision C.02,
 Gaussian 16:  ES64L-G16RevC.02  7-Dec-2021

 ----------------------------------------------------------
 # td=(50-50,nstates=3) b3lyp/6-31+g(d,p) geom=connectivity
 ----------------------------------------------------------

 -------------------
 Title Card Required
 -------------------
 Symbolic Z-matrix:
 Charge =  0 Multiplicity = 1

                         Standard orientation:
 ---------------------------------------------------------------------
 Center     Atomic      Atomic             Coordinates (Angstroms)
 Number     Number       Type             X           Y           Z
 ---------------------------------------------------------------------
      1          6           0       -2.280764   -2.344685   -0.001075
      2          6           0       -2.234938   -0.801896   -0.000019
      3          6           0       -2.973126   -0.313262   -1.273009
      4          6           0       -2.971650   -0.314880    1.274529
      5          6           0       -0.786614   -0.270379   -0.000258
      6          6           0        0.302721   -1.150959   -0.000194
      7          6           0        1.636267   -0.718792   -0.000119
      8          6           0        2.683362   -1.698356   -0.000009
      9          7           0        3.508939   -2.517582    0.000129
     10          6           0        1.927531    0.662603   -0.000106
     11          6           0        3.274473    1.151196   -0.000009
     12          7           0        4.358427    1.572453    0.000026
     13          6           0        0.861813    1.564784   -0.000121
     14          6           0       -0.468224    1.116231   -0.000143
     15          6           0       -1.457975    2.159285    0.000145
     16          7           0       -2.197691    3.057337    0.000003
     17          1           0       -1.809878   -2.775983    0.888687
     18          1           0       -3.326604   -2.664863   -0.001121
     19          1           0       -1.810164   -2.774730   -0.891582
     20          1           0       -3.050482    0.773982   -1.327532
     21          1           0       -3.991631   -0.715138   -1.276687
     22          1           0       -2.467864   -0.669216   -2.177203
     23          1           0       -3.989762   -0.717717    1.279432
     24          1           0       -2.464639   -0.670875    2.177720
     25          1           0       -3.049869    0.772292    1.329767
     26          1           0        0.131808   -2.218316   -0.000158
     27          1           0        1.064116    2.629767   -0.000096
 ---------------------------------------------------------------------

 SCF Done:  E(RB3LYP) =  -666.254372960     A.U. after   16 cycles

 Excitation energies and oscillator strengths:

 Excited State   1:      Triplet-A      2.8835 eV  429.97 nm  f=0.0000  <S**2>=2.000
      54 -> 56        -0.14855
      54 -> 57        -0.24101
      55 -> 56         0.63531
 This state for optimization and/or second-order correction.
 Total Energy, E(TD-HF/TD-DFT) =  -666.148405285
 Copying the excited state density for this state as the 1-particle RhoCI density.

 Excited State   2:      Triplet-A      3.6572 eV  339.02 nm  f=0.0000  <S**2>=2.000
      54 -> 56         0.65893
      55 -> 56         0.14278
      55 -> 57        -0.18849

 Excited State   3:      Triplet-A      4.0365 eV  307.16 nm  f=0.0000  <S**2>=2.000
      54 -> 57         0.54440
      55 -> 56         0.26104
      55 -> 57         0.34297

 Excited State   4:      Singlet-A      4.3895 eV  282.45 nm  f=0.0531  <S**2>=0.000
      54 -> 56         0.50129
      54 -> 57        -0.10799
      55 -> 56         0.34666
      55 -> 57         0.33693

 Excited State   5:      Singlet-A      4.6849 eV  264.65 nm  f=0.2383  <S**2>=0.000
      54 -> 56        -0.29901
      54 -> 57        -0.10068
      55 -> 56         0.59243
      55 -> 57        -0.20064

 Excited State   6:      Singlet-A      5.3318 eV  232.54 nm  f=0.0001  <S**2>=0.000
      51 -> 56         0.12069
      53 -> 56         0.68140

 The electronic state is 1-A.
 Alpha  occ. eigenvalues --  -14.37838 -14.37815 -14.37595 -10.29620 -10.29328
 Alpha  occ. eigenvalues --  -10.29026 -10.27505 -10.27256 -10.26978 -10.26722
 Alpha  occ. eigenvalues --  -10.26557 -10.26132 -10.25221 -10.21153 -10.20730
 Alpha  occ. eigenvalues --  -10.20727  -0.96059  -0.94678  -0.93935  -0.92525
 Alpha  occ. eigenvalues --   -0.87239  -0.84373  -0.81487  -0.73652  -0.72089
 Alpha  occ. eigenvalues --   -0.71896  -0.69640  -0.63791  -0.61976  -0.57882
 Alpha  occ. eigenvalues --   -0.55004  -0.52509  -0.49905  -0.48028  -0.47995
 Alpha  occ. eigenvalues --   -0.46522  -0.46422  -0.43938  -0.43138  -0.41234
 Alpha  occ. eigenvalues --   -0.40860  -0.39954  -0.39727  -0.39677  -0.39437
 Alpha  occ. eigenvalues --   -0.39167  -0.39060  -0.37520  -0.37412  -0.36855
 Alpha  occ. eigenvalues --   -0.36293  -0.35899  -0.35147  -0.31313  -0.30065
 Alpha virt. eigenvalues --   -0.12251  -0.09005  -0.02160  -0.02065  -0.01469
 Alpha virt. eigenvalues --   -0.00471  -0.00215   0.00228   0.00496   0.01004
 Alpha virt. eigenvalues --    0.01505   0.02649   0.02894   0.03117   0.03760

 Mulliken charges:
               1
     1  C   -0.458481
     2  C    0.379065
     3  C   -0.527380
     4  C   -0.527567
     5  C   -0.049085
     6  C    0.093203
     7  C    0.217815
     8  C   -0.319987
     9  N   -0.507846
    10  C    0.452191
    11  C   -0.261184
    12  N   -0.524958
    13  C    0.165118
    14  C    0.679007
    15  C   -0.122770
    16  N   -0.470016
    17  H    0.157101
    18  H    0.161043
    19  H    0.157150
    20  H    0.167093
    21  H    0.156680
    22  H    0.155788
    23  H    0.156686
    24  H    0.155797
    25  H    0.167134
    26  H    0.162773
    27  H    0.185631
 Sum of Mulliken charges =  -0.00000

 Dipole moment (field-independent basis, Debye):
    X=             -5.4012    Y=             -2.0657    Z=             -0.0001  Tot=              5.7827
 Quadrupole moment (field-independent basis, Debye-Ang):
   XX=           -125.2261   YY=           -108.2368   ZZ=            -93.8380
   XY=             14.0833   XZ=             -0.0015   YZ=              0.0002

 Normal termination of Gaussian 16 at Tue Aug 26 09:02:45 2025.
