 Gaussian 16, Revision C.02,
 Gaussian 16:  ES64L-G16RevC.02  7-Dec-2021

 ----------------------------------------------------------
 # td=(50-50,nstates=3) b3lyp/6-31+g(d,p) geom=connectivity
 ----------------------------------------------------------

 -------------------
 Title Card Required
 -------------------
 Symbolic Z-matrix:
 Charge =  0 Multiplicity = 1

                         Standard orientation:
 ---------------------------------------------------------------------
 Center     Atomic      Atomic             Coordinates (Angstroms)
 Number     Number       Type             X           Y           Z
 ---------------------------------------------------------------------
      1          6           0        1.431049    2.562449    1.054136
      2          8           0        1.574824    1.916313   -0.216622
      3          6           0        2.082579    0.632204   -0.161972
      4          6           0        3.468914    0.459506   -0.194724
      5          6           0        4.022297   -0.820912   -0.172307
      6          6           0        3.181981   -1.935818   -0.115624
      7          6           0        1.799094   -1.760417   -0.086087
      8          6           0        1.215176   -0.479993   -0.108959
      9          6           0       -0.265038   -0.340029   -0.080951
     10          6           0       -0.939608    0.543732   -0.944326
     11          6           0       -2.327834    0.633128   -0.934986
     12          6           0       -3.080984   -0.161145   -0.052106
     13          6           0       -4.512314   -0.068025   -0.037344
     14          7           0       -5.674073    0.007732   -0.024764
     15          6           0       -2.420780   -1.045188    0.817675
     16          6           0       -1.031539   -1.127859    0.797915
     17          1           0        1.042822    3.561542    0.848951
     18          1           0        0.724950    2.018807    1.693831
     19          1           0        2.398665    2.641943    1.565012
     20          1           0        4.098955    1.342229   -0.247114
     21          1           0        5.100448   -0.946115   -0.207015
     22          1           0        3.599530   -2.938007   -0.109090
     23          1           0        1.149861   -2.631003   -0.072808
     24          1           0       -0.368703    1.159553   -1.628743
     25          1           0       -2.836090    1.312158   -1.611676
     26          1           0       -2.997312   -1.654467    1.505850
     27          1           0       -0.531164   -1.801072    1.487092
 ---------------------------------------------------------------------

 SCF Done:  E(RB3LYP) =  -670.106467600     A.U. after   16 cycles

 Excitation energies and oscillator strengths:

 Excited State   1:      Triplet-A      3.0628 eV  404.81 nm  f=0.0000  <S**2>=2.000
      52 -> 56         0.12777
      52 -> 59         0.11760
      53 -> 57         0.17506
      54 -> 56         0.13952
      54 -> 58         0.11762
      55 -> 56         0.61605
 This state for optimization and/or second-order correction.
 Total Energy, E(TD-HF/TD-DFT) =  -669.993912530
 Copying the excited state density for this state as the 1-particle RhoCI density.

 Excited State   2:      Triplet-A      3.7296 eV  332.44 nm  f=0.0000  <S**2>=2.000
      51 -> 56        -0.20185
      52 -> 56        -0.31181
      53 -> 57        -0.17926
      54 -> 58         0.39256
      55 -> 59        -0.36352

 Excited State   3:      Triplet-A      4.1353 eV  299.82 nm  f=0.0000  <S**2>=2.000
      54 -> 56         0.57871
      54 -> 58         0.25028
      54 -> 59        -0.17829
      55 -> 56        -0.19848

 Excited State   4:      Singlet-A      4.3766 eV  283.29 nm  f=0.3964  <S**2>=0.000
      54 -> 56        -0.19014
      55 -> 56         0.66592

 Excited State   5:      Singlet-A      4.6487 eV  266.71 nm  f=0.1365  <S**2>=0.000
      54 -> 56         0.62230
      55 -> 56         0.19064
      55 -> 58        -0.22074

 Excited State   6:      Singlet-A      4.7561 eV  260.69 nm  f=0.0120  <S**2>=0.000
      53 -> 56         0.49954
      55 -> 57        -0.46601

 The electronic state is 1-A.
 Alpha  occ. eigenvalues --  -19.18493 -14.34601 -10.26537 -10.25030 -10.24780
 Alpha  occ. eigenvalues --  -10.23781 -10.23288 -10.22701 -10.22546 -10.22377
 Alpha  occ. eigenvalues --  -10.22011 -10.21655 -10.21420 -10.21388 -10.21024
 Alpha  occ. eigenvalues --  -10.21002  -1.06888  -0.91583  -0.89155  -0.87044
 Alpha  occ. eigenvalues --   -0.81064  -0.77729  -0.76772  -0.75732  -0.70590
 Alpha  occ. eigenvalues --   -0.66685  -0.64224  -0.61853  -0.60427  -0.57031
 Alpha  occ. eigenvalues --   -0.54477  -0.51368  -0.50321  -0.48303  -0.48039
 Alpha  occ. eigenvalues --   -0.47309  -0.45979  -0.45320  -0.44688  -0.44396
 Alpha  occ. eigenvalues --   -0.41442  -0.40867  -0.39383  -0.38594  -0.37410
 Alpha  occ. eigenvalues --   -0.37040  -0.36640  -0.36059  -0.34907  -0.33797
 Alpha  occ. eigenvalues --   -0.29441  -0.29072  -0.28059  -0.26560  -0.24855
 Alpha virt. eigenvalues --   -0.07195  -0.03657  -0.02907  -0.01871  -0.00639
 Alpha virt. eigenvalues --    0.00386   0.00896   0.01546   0.02245   0.02510
 Alpha virt. eigenvalues --    0.02770   0.03389   0.03901   0.04357   0.04592

 Mulliken charges:
               1
     1  C   -0.151029
     2  O   -0.333518
     3  C   -1.397706
     4  C    0.169316
     5  C   -0.315786
     6  C   -0.058186
     7  C   -0.552667
     8  C    1.441837
     9  C    0.300920
    10  C    0.272538
    11  C   -0.103641
    12  C    0.491583
    13  C   -0.207022
    14  N   -0.535232
    15  C   -0.322603
    16  C   -0.230286
    17  H    0.148883
    18  H    0.145291
    19  H    0.139757
    20  H    0.135481
    21  H    0.131200
    22  H    0.128976
    23  H    0.127481
    24  H    0.148759
    25  H    0.147455
    26  H    0.147117
    27  H    0.131081
 Sum of Mulliken charges =  -0.00000

 Dipole moment (field-independent basis, Debye):
    X=              5.6697    Y=             -0.2525    Z=              1.2166  Tot=              5.8042
 Quadrupole moment (field-independent basis, Debye-Ang):
   XX=           -121.8819   YY=            -85.5428   ZZ=            -92.9700
   XY=              0.0759   XZ=              1.3220   YZ=             -0.6107

 Normal termination of Gaussian 16 at Tue Aug 26 09:03:43 2025.
