 Gaussian 16, Revision C.02,
 Gaussian 16:  ES64L-G16RevC.02  7-Dec-2021

 ----------------------------------------------------------
 # td=(50-50,nstates=3) b3lyp/6-31+g(d,p) geom=connectivity
 ----------------------------------------------------------

 -------------------
 Title Card Required
 -------------------
 Symbolic Z-matrix:
 Charge =  0 Multiplicity = 1

                         Standard orientation:
 ---------------------------------------------------------------------
 Center     Atomic      Atomic             Coordinates (Angstroms)
 Number     Number       Type             X           Y           Z
 ---------------------------------------------------------------------
      1          6           0        3.271830   -1.873756   -0.599415
      2          6           0        3.319360   -0.476650    0.039357
      3          6           0        4.384630   -0.425277    1.145986
      4          6           0        1.961364   -0.009904    0.600832
      5          6           0        0.805167    0.113252   -0.455966
      6          6           0       -0.081480   -1.107521   -0.442128
      7          6           0       -1.393968   -1.079897   -0.167262
      8         17           0       -2.315162   -2.571219   -0.127365
      9          6           0       -2.104214    0.177137    0.106992
     10          7           0       -3.363369    0.124373    0.403643
     11          8           0       -3.898504    1.396970    0.641179
     12          6           0       -1.320877    1.408437   -0.004104
     13          6           0       -0.008245    1.367246   -0.276517
     14         17           0        0.878901    2.874857   -0.474961
     15          1           0        4.264133   -2.166126   -0.959667
     16          1           0        2.947962   -2.628579    0.128315
     17          1           0        2.593234   -1.917572   -1.458140
     18          1           0        3.611962    0.241365   -0.741706
     19          1           0        4.462545    0.577190    1.581108
     20          1           0        5.370713   -0.699103    0.755183
     21          1           0        4.142698   -1.124480    1.956241
     22          1           0        1.635024   -0.688764    1.399030
     23          1           0        2.108029    0.968635    1.068264
     24          1           0        1.280968    0.180811   -1.447399
     25          1           0        0.397875   -2.061195   -0.634003
     26          1           0       -4.826176    1.202687    0.831970
     27          1           0       -1.842312    2.348506    0.118773
 ---------------------------------------------------------------------

 SCF Done:  E(RB3LYP) =  -1439.22363588     A.U. after   15 cycles

 Excitation energies and oscillator strengths:

 Excited State   1:      Triplet-A      2.3475 eV  528.15 nm  f=0.0000  <S**2>=2.000
      60 -> 63        -0.15465
      61 -> 62         0.68512
      61 <- 62         0.13715
 This state for optimization and/or second-order correction.
 Total Energy, E(TD-HF/TD-DFT) =  -1439.13736543
 Copying the excited state density for this state as the 1-particle RhoCI density.

 Excited State   2:      Triplet-A      3.3796 eV  366.86 nm  f=0.0000  <S**2>=2.000
      60 -> 62         0.56138
      61 -> 63        -0.38114

 Excited State   3:      Triplet-A      4.1385 eV  299.58 nm  f=0.0000  <S**2>=2.000
      57 -> 62         0.11343
      59 -> 62         0.68130

 Excited State   4:      Singlet-A      4.4423 eV  279.10 nm  f=0.1965  <S**2>=0.000
      60 -> 62        -0.38388
      61 -> 62         0.53930
      61 -> 63        -0.21883

 Excited State   5:      Singlet-A      4.7383 eV  261.66 nm  f=0.2144  <S**2>=0.000
      60 -> 62         0.56158
      60 -> 63         0.11139
      61 -> 62         0.39407

 Excited State   6:      Singlet-A      4.8612 eV  255.05 nm  f=0.0060  <S**2>=0.000
      59 -> 62         0.69570

 The electronic state is 1-A.
 Alpha  occ. eigenvalues -- -101.56917-101.55653 -19.21377 -14.40178 -10.27892
 Alpha  occ. eigenvalues --  -10.26997 -10.25683 -10.23856 -10.22351 -10.22112
 Alpha  occ. eigenvalues --  -10.20848 -10.20648 -10.19051 -10.18729  -9.48407
 Alpha  occ. eigenvalues --   -9.47124  -7.24800  -7.23863  -7.23811  -7.23559
 Alpha  occ. eigenvalues --   -7.22560  -7.22508  -1.10214  -0.92444  -0.89465
 Alpha  occ. eigenvalues --   -0.86096  -0.83713  -0.81026  -0.76292  -0.73946
 Alpha  occ. eigenvalues --   -0.69860  -0.67380  -0.63520  -0.59641  -0.57840
 Alpha  occ. eigenvalues --   -0.54839  -0.52158  -0.49905  -0.48081  -0.47269
 Alpha  occ. eigenvalues --   -0.46212  -0.45368  -0.44949  -0.44065  -0.43125
 Alpha  occ. eigenvalues --   -0.41724  -0.40900  -0.39787  -0.38946  -0.37675
 Alpha  occ. eigenvalues --   -0.36865  -0.36387  -0.34594  -0.34064  -0.33731
 Alpha  occ. eigenvalues --   -0.32876  -0.31755  -0.31674  -0.29277  -0.26775
 Alpha  occ. eigenvalues --   -0.23989
 Alpha virt. eigenvalues --   -0.07102  -0.02577  -0.00276  -0.00072   0.00822
 Alpha virt. eigenvalues --    0.00954   0.01799   0.01979   0.02346   0.03879
 Alpha virt. eigenvalues --    0.04502   0.04616   0.04915   0.05412   0.06632

 Mulliken charges:
               1
     1  C   -0.514766
     2  C    0.334775
     3  C   -0.645157
     4  C   -0.748508
     5  C   -0.054269
     6  C    0.178838
     7  C    0.125446
     8  Cl   0.194458
     9  C   -0.881195
    10  N   -0.382794
    11  O   -0.204396
    12  C    0.688050
    13  C   -0.420883
    14  Cl   0.144746
    15  H    0.148729
    16  H    0.150277
    17  H    0.137825
    18  H    0.135075
    19  H    0.145607
    20  H    0.146822
    21  H    0.148438
    22  H    0.150888
    23  H    0.154412
    24  H    0.174171
    25  H    0.150407
    26  H    0.374663
    27  H    0.168342
 Sum of Mulliken charges =  -0.00000

 Dipole moment (field-independent basis, Debye):
    X=              1.8921    Y=              0.1574    Z=              0.0210  Tot=              1.8987
 Quadrupole moment (field-independent basis, Debye-Ang):
   XX=            -90.6389   YY=           -103.6862   ZZ=            -99.7153
   XY=             -7.1848   XZ=             -2.3676   YZ=              1.0689

 Normal termination of Gaussian 16 at Tue Oct  7 12:09:27 2025.
