 Gaussian 16, Revision C.02,
 Gaussian 16:  ES64L-G16RevC.02  7-Dec-2021

 ----------------------------------------------------------
 # td=(50-50,nstates=3) b3lyp/6-31+g(d,p) geom=connectivity
 ----------------------------------------------------------

 -------------------
 Title Card Required
 -------------------
 Symbolic Z-matrix:
 Charge =  0 Multiplicity = 1

                         Standard orientation:
 ---------------------------------------------------------------------
 Center     Atomic      Atomic             Coordinates (Angstroms)
 Number     Number       Type             X           Y           Z
 ---------------------------------------------------------------------
      1          6           0       -3.512861   -4.092013   -0.255374
      2          6           0       -2.873482   -2.728707   -0.122742
      3          6           0       -3.342477   -1.789367    0.797227
      4          6           0       -2.766546   -0.517225    0.926006
      5          6           0       -3.343958    0.444854    1.941204
      6          6           0       -1.672640   -0.158796    0.104856
      7          6           0       -1.044627    1.192695    0.241501
      8          6           0       -1.284534    2.151650   -0.674910
      9          7           0       -0.715540    3.429464   -0.654185
     10          6           0       -1.368687    4.491941   -1.406108
     11          6           0        0.012777    3.772096    0.490705
     12          6           0        0.309293    2.896878    1.464726
     13          6           0       -0.116837    1.448023    1.423215
     14          6           0       -1.182351   -1.104749   -0.830190
     15          6           0        0.006821   -0.805003   -1.731888
     16          6           0        1.366352   -0.847477   -1.047748
     17          6           0        2.320772    0.147807   -1.302845
     18          6           0        3.586529    0.102061   -0.722375
     19          6           0        3.923174   -0.957469    0.136433
     20          6           0        5.223267   -1.013492    0.740337
     21          7           0        6.278618   -1.059516    1.230085
     22          6           0        2.974364   -1.960920    0.403052
     23          6           0        1.713420   -1.897756   -0.182733
     24          6           0       -1.790839   -2.361109   -0.930583
     25          1           0       -4.353928   -4.205653    0.434545
     26          1           0       -3.888327   -4.259268   -1.271737
     27          1           0       -2.794731   -4.892361   -0.040864
     28          1           0       -4.191306   -2.044293    1.428568
     29          1           0       -4.370966    0.168729    2.197152
     30          1           0       -2.764768    0.440416    2.873096
     31          1           0       -3.344605    1.472748    1.568166
     32          1           0       -1.947056    1.967325   -1.516132
     33          1           0       -1.648341    4.120810   -2.395959
     34          1           0       -2.273878    4.872212   -0.906853
     35          1           0       -0.671761    5.323597   -1.541817
     36          1           0        0.341184    4.806020    0.528991
     37          1           0        0.905183    3.240160    2.304880
     38          1           0        0.761944    0.785426    1.358328
     39          1           0       -0.609682    1.164066    2.366025
     40          1           0        0.013164   -1.544115   -2.543554
     41          1           0       -0.107289    0.172305   -2.207175
     42          1           0        2.066489    0.976580   -1.957507
     43          1           0        4.312737    0.882540   -0.924422
     44          1           0        3.231003   -2.778840    1.068416
     45          1           0        0.983983   -2.670620    0.040071
     46          1           0       -1.412168   -3.070961   -1.664111
 ---------------------------------------------------------------------

 SCF Done:  E(RB3LYP) =  -961.125999294     A.U. after   16 cycles

 Excitation energies and oscillator strengths:

 Excited State   1:      Triplet-A      2.7528 eV  450.40 nm  f=0.0000  <S**2>=2.000
      84 -> 85        -0.38445
      84 -> 87         0.40594
      84 -> 90        -0.38276
      84 -> 93         0.11075
 This state for optimization and/or second-order correction.
 Total Energy, E(TD-HF/TD-DFT) =  -961.024836418
 Copying the excited state density for this state as the 1-particle RhoCI density.

 Excited State   2:      Singlet-A      2.9787 eV  416.24 nm  f=0.0013  <S**2>=0.000
      84 -> 85         0.70600

 Excited State   3:      Triplet-A      3.0532 eV  406.08 nm  f=0.0000  <S**2>=2.000
      84 -> 85         0.59101
      84 -> 87         0.27446
      84 -> 90        -0.23887

 Excited State   4:      Triplet-A      3.3498 eV  370.13 nm  f=0.0000  <S**2>=2.000
      79 -> 86        -0.27319
      80 -> 85         0.17086
      81 -> 85        -0.56491
      82 -> 85        -0.17866
      83 -> 85         0.13176

 Excited State   5:      Singlet-A      3.5826 eV  346.07 nm  f=0.0060  <S**2>=0.000
      84 -> 86         0.70608

 Excited State   6:      Singlet-A      3.7768 eV  328.28 nm  f=0.0621  <S**2>=0.000
      84 -> 87         0.69928

 The electronic state is 1-A.
 Alpha  occ. eigenvalues --  -14.37389 -14.34108 -10.24144 -10.23321 -10.23302
 Alpha  occ. eigenvalues --  -10.22412 -10.22393 -10.22330 -10.22101 -10.22093
 Alpha  occ. eigenvalues --  -10.21125 -10.21020 -10.20744 -10.20609 -10.20489
 Alpha  occ. eigenvalues --  -10.20468 -10.20167 -10.19496 -10.19348 -10.19162
 Alpha  occ. eigenvalues --  -10.19128 -10.19020 -10.18543 -10.18457  -0.96796
 Alpha  occ. eigenvalues --   -0.91083  -0.88336  -0.87031  -0.81795  -0.81205
 Alpha  occ. eigenvalues --   -0.78710  -0.77491  -0.77012  -0.76019  -0.72069
 Alpha  occ. eigenvalues --   -0.71225  -0.69189  -0.68824  -0.64078  -0.63559
 Alpha  occ. eigenvalues --   -0.63233  -0.62067  -0.58009  -0.57090  -0.56433
 Alpha  occ. eigenvalues --   -0.52701  -0.50577  -0.49539  -0.48929  -0.48608
 Alpha  occ. eigenvalues --   -0.48001  -0.46555  -0.46185  -0.45367  -0.44358
 Alpha  occ. eigenvalues --   -0.44046  -0.43408  -0.42865  -0.42415  -0.42022
 Alpha  occ. eigenvalues --   -0.41590  -0.41305  -0.40890  -0.40813  -0.39898
 Alpha  occ. eigenvalues --   -0.39755  -0.38710  -0.37658  -0.37131  -0.36822
 Alpha  occ. eigenvalues --   -0.36193  -0.36015  -0.34908  -0.34341  -0.33951
 Alpha  occ. eigenvalues --   -0.33700  -0.33315  -0.32661  -0.27660  -0.26989
 Alpha  occ. eigenvalues --   -0.26086  -0.24694  -0.24039  -0.18653
 Alpha virt. eigenvalues --   -0.05652  -0.03334  -0.02171  -0.01507  -0.00848
 Alpha virt. eigenvalues --   -0.00588   0.00148   0.00640   0.00945   0.01666
 Alpha virt. eigenvalues --    0.01881   0.02070   0.02579   0.02695   0.03044

 Mulliken charges:
               1
     1  C   -0.519096
     2  C    0.379773
     3  C   -0.991013
     4  C    0.580253
     5  C   -0.584522
     6  C    0.222914
     7  C   -0.198662
     8  C   -0.862139
     9  N    0.091759
    10  C   -0.161504
    11  C    0.032380
    12  C   -0.244723
    13  C   -0.274996
    14  C   -0.005008
    15  C   -0.272829
    16  C    0.544939
    17  C    0.221847
    18  C   -0.303015
    19  C    0.328301
    20  C   -0.159013
    21  N   -0.544891
    22  C   -0.343836
    23  C   -0.257084
    24  C    0.237961
    25  H    0.148163
    26  H    0.163389
    27  H    0.162244
    28  H    0.112980
    29  H    0.143589
    30  H    0.161589
    31  H    0.169956
    32  H    0.111678
    33  H    0.142121
    34  H    0.151302
    35  H    0.145126
    36  H    0.118480
    37  H    0.120593
    38  H    0.157642
    39  H    0.134700
    40  H    0.151785
    41  H    0.142534
    42  H    0.119438
    43  H    0.142980
    44  H    0.144315
    45  H    0.135720
    46  H    0.101880
 Sum of Mulliken charges =  -0.00000

 Dipole moment (field-independent basis, Debye):
    X=             -5.8116    Y=              1.5785    Z=             -2.5736  Tot=              6.5490
 Quadrupole moment (field-independent basis, Debye-Ang):
   XX=           -182.2696   YY=           -126.4379   ZZ=           -141.6039
   XY=              7.6040   XZ=            -10.2059   YZ=             -3.6138

 Normal termination of Gaussian 16 at Tue Aug 26 09:10:57 2025.
