 Gaussian 16, Revision C.02,
 Gaussian 16:  ES64L-G16RevC.02  7-Dec-2021

 ----------------------------------------------------------
 # td=(50-50,nstates=3) b3lyp/6-31+g(d,p) geom=connectivity
 ----------------------------------------------------------

 -------------------
 Title Card Required
 -------------------
 Symbolic Z-matrix:
 Charge =  0 Multiplicity = 1

                         Standard orientation:
 ---------------------------------------------------------------------
 Center     Atomic      Atomic             Coordinates (Angstroms)
 Number     Number       Type             X           Y           Z
 ---------------------------------------------------------------------
      1          6           0        5.781814   -1.144613    1.241184
      2          6           0        4.681502   -1.442590    0.203702
      3          6           0        5.293353   -1.916922   -1.129002
      4          6           0        3.744742   -0.256295    0.011029
      5          6           0        4.206468    0.970468   -0.488281
      6          6           0        3.329291    2.044003   -0.652294
      7          6           0        1.978817    1.913020   -0.321713
      8          6           0        1.486027    0.699306    0.178368
      9          6           0        0.016747    0.522352    0.539297
     10          6           0       -0.432007    1.499359    1.641218
     11          6           0       -0.877355    0.622732   -0.733311
     12          6           0       -2.322531    0.236415   -0.508077
     13          6           0       -3.335042    1.204471   -0.426244
     14          6           0       -4.663974    0.846921   -0.207849
     15          6           0       -5.008981   -0.507384   -0.065907
     16          6           0       -6.374568   -0.885876    0.157935
     17          7           0       -7.482448   -1.193460    0.340760
     18          6           0       -4.006695   -1.490434   -0.149876
     19          6           0       -2.685102   -1.114243   -0.369732
     20          6           0        2.384865   -0.365768    0.334420
     21          1           0        6.400110   -2.033141    1.412277
     22          1           0        6.442809   -0.340046    0.899462
     23          1           0        5.350992   -0.838279    2.199958
     24          1           0        4.073911   -2.268038    0.597977
     25          1           0        4.514676   -2.160742   -1.859090
     26          1           0        5.908203   -2.810671   -0.973445
     27          1           0        5.934442   -1.144912   -1.569475
     28          1           0        5.253835    1.093611   -0.750107
     29          1           0        3.700157    2.989429   -1.038964
     30          1           0        1.313769    2.762338   -0.453213
     31          1           0       -0.098138   -0.496059    0.932996
     32          1           0       -1.467177    1.307748    1.940587
     33          1           0        0.202955    1.398339    2.526785
     34          1           0       -0.367230    2.539791    1.303002
     35          1           0       -0.828479    1.645427   -1.124640
     36          1           0       -0.447131   -0.028238   -1.503461
     37          1           0       -3.080343    2.254660   -0.539097
     38          1           0       -5.435829    1.607260   -0.148899
     39          1           0       -4.272047   -2.537674   -0.048578
     40          1           0       -1.920813   -1.883621   -0.442961
     41          1           0        2.014230   -1.312494    0.724366
 ---------------------------------------------------------------------

 SCF Done:  E(RB3LYP) =  -791.486643909     A.U. after   16 cycles

 Excitation energies and oscillator strengths:

 Excited State   1:      Triplet-A      3.3547 eV  369.58 nm  f=0.0000  <S**2>=2.000
      68 -> 73         0.28297
      69 -> 72         0.57796
      70 -> 72         0.19067
      71 -> 72        -0.19683
 This state for optimization and/or second-order correction.
 Total Energy, E(TD-HF/TD-DFT) =  -791.363360048
 Copying the excited state density for this state as the 1-particle RhoCI density.

 Excited State   2:      Triplet-A      3.6832 eV  336.62 nm  f=0.0000  <S**2>=2.000
      69 -> 74         0.11203
      70 -> 75        -0.39993
      71 -> 72        -0.10646
      71 -> 74         0.51951

 Excited State   3:      Triplet-A      4.3423 eV  285.52 nm  f=0.0000  <S**2>=2.000
      68 -> 72         0.61455
      69 -> 73         0.28894
      71 -> 73        -0.10790

 Excited State   4:      Singlet-A      4.6265 eV  267.99 nm  f=0.0636  <S**2>=0.000
      71 -> 72         0.70344

 Excited State   5:      Singlet-A      4.8643 eV  254.89 nm  f=0.0381  <S**2>=0.000
      70 -> 72         0.69322

 Excited State   6:      Singlet-A      4.9723 eV  249.35 nm  f=0.0017  <S**2>=0.000
      68 -> 72         0.49585
      69 -> 73        -0.37644
      70 -> 73        -0.17322
      71 -> 73         0.27876

 The electronic state is 1-A.
 Alpha  occ. eigenvalues --  -14.34569 -10.24741 -10.23765 -10.22859 -10.22735
 Alpha  occ. eigenvalues --  -10.22719 -10.21845 -10.21827 -10.21417 -10.20845
 Alpha  occ. eigenvalues --  -10.20690 -10.20541 -10.20492 -10.20112 -10.19758
 Alpha  occ. eigenvalues --  -10.19672 -10.19640 -10.18854 -10.18489 -10.18463
 Alpha  occ. eigenvalues --   -0.91560  -0.88811  -0.87160  -0.83181  -0.80807
 Alpha  occ. eigenvalues --   -0.78675  -0.77697  -0.74616  -0.73298  -0.71049
 Alpha  occ. eigenvalues --   -0.69160  -0.65215  -0.63878  -0.63036  -0.61239
 Alpha  occ. eigenvalues --   -0.59752  -0.57094  -0.54922  -0.51664  -0.50131
 Alpha  occ. eigenvalues --   -0.49376  -0.48155  -0.46918  -0.45642  -0.45480
 Alpha  occ. eigenvalues --   -0.44937  -0.44377  -0.43123  -0.42872  -0.42194
 Alpha  occ. eigenvalues --   -0.41702  -0.40877  -0.39606  -0.39338  -0.38768
 Alpha  occ. eigenvalues --   -0.37816  -0.37685  -0.37099  -0.36641  -0.36155
 Alpha  occ. eigenvalues --   -0.35298  -0.34794  -0.34513  -0.34091  -0.33797
 Alpha  occ. eigenvalues --   -0.33257  -0.32420  -0.28277  -0.26813  -0.25666
 Alpha  occ. eigenvalues --   -0.24804
 Alpha virt. eigenvalues --   -0.06193  -0.03846  -0.01877  -0.01813  -0.00998
 Alpha virt. eigenvalues --   -0.00088   0.00165   0.01253   0.01353   0.01634
 Alpha virt. eigenvalues --    0.02224   0.02586   0.02726   0.03175   0.03327

 Mulliken charges:
               1
     1  C   -0.566114
     2  C    0.430386
     3  C   -0.562719
     4  C   -0.438885
     5  C    0.024383
     6  C   -0.292977
     7  C    0.134145
     8  C   -0.312280
     9  C    0.359610
    10  C   -0.577249
    11  C   -0.732271
    12  C    0.550841
    13  C   -0.177665
    14  C   -0.242697
    15  C    0.389366
    16  C   -0.175972
    17  N   -0.539395
    18  C   -0.280129
    19  C    0.299081
    20  C   -0.150716
    21  H    0.142349
    22  H    0.146740
    23  H    0.148775
    24  H    0.117035
    25  H    0.147895
    26  H    0.142304
    27  H    0.146776
    28  H    0.116106
    29  H    0.124636
    30  H    0.110965
    31  H    0.120224
    32  H    0.153681
    33  H    0.150793
    34  H    0.145976
    35  H    0.140528
    36  H    0.157051
    37  H    0.125730
    38  H    0.147289
    39  H    0.147021
    40  H    0.124924
    41  H    0.104458
 Sum of Mulliken charges =  -0.00000

 Dipole moment (field-independent basis, Debye):
    X=              5.4235    Y=              1.0700    Z=             -0.5660  Tot=              5.5570
 Quadrupole moment (field-independent basis, Debye-Ang):
   XX=           -169.3992   YY=           -113.9596   ZZ=           -125.9663
   XY=            -13.4604   XZ=              2.9282   YZ=             -1.7191

 Normal termination of Gaussian 16 at Tue Aug 26 09:06:29 2025.
