 Gaussian 16, Revision C.02,
 Gaussian 16:  ES64L-G16RevC.02  7-Dec-2021

 ----------------------------------------------------------
 # td=(50-50,nstates=3) b3lyp/6-31+g(d,p) geom=connectivity
 ----------------------------------------------------------

 -------------------
 Title Card Required
 -------------------
 Symbolic Z-matrix:
 Charge =  0 Multiplicity = 1

                         Standard orientation:
 ---------------------------------------------------------------------
 Center     Atomic      Atomic             Coordinates (Angstroms)
 Number     Number       Type             X           Y           Z
 ---------------------------------------------------------------------
      1          6           0        5.594891    1.155255   -1.033673
      2          6           0        4.998422    0.195494    0.014237
      3          6           0        5.518865   -1.232210   -0.284984
      4          6           0        5.492355    0.639305    1.413379
      5          6           0        3.459826    0.189917   -0.005433
      6          6           0        2.703988    0.983164   -0.882145
      7          6           0        1.309492    0.959035   -0.874489
      8          6           0        0.612470    0.118648    0.006259
      9          6           0       -0.868707    0.100688    0.003175
     10          6           0       -1.651255   -1.032985   -0.036426
     11          7           0       -0.985938   -2.355961   -0.134033
     12          8           0       -0.588520   -2.696775   -1.241113
     13          8           0       -0.897345   -3.009475    0.901462
     14          6           0       -3.095204   -1.042284   -0.028128
     15         17           0       -3.940725   -2.562078   -0.117802
     16          6           0       -3.810594    0.124254    0.018266
     17          6           0       -3.044155    1.309996    0.059717
     18          6           0       -1.620377    1.332174    0.051781
     19          7           0       -1.156121    2.572096    0.112855
     20          8           0       -2.253904    3.384631    0.152755
     21          7           0       -3.459902    2.584667    0.122293
     22          8           0       -4.553461    3.136266    0.148722
     23          6           0        1.356584   -0.675423    0.896081
     24          6           0        2.747249   -0.632964    0.885353
     25          1           0        5.290354    2.192830   -0.859258
     26          1           0        6.687872    1.120498   -0.979787
     27          1           0        5.307397    0.877632   -2.053482
     28          1           0        5.170367   -1.958183    0.455745
     29          1           0        6.614636   -1.243644   -0.273042
     30          1           0        5.185425   -1.573178   -1.270875
     31          1           0        6.587859    0.644600    1.441576
     32          1           0        5.140897    1.648842    1.651951
     33          1           0        5.142788   -0.033095    2.202648
     34          1           0        3.196994    1.638811   -1.589803
     35          1           0        0.764033    1.590559   -1.567405
     36          1           0       -4.893110    0.144726    0.017144
     37          1           0        0.850698   -1.313517    1.612861
     38          1           0        3.282575   -1.256713    1.594130
 ---------------------------------------------------------------------

 SCF Done:  E(RB3LYP) =  -1543.28214904     A.U. after   18 cycles

 Excitation energies and oscillator strengths:

 Excited State   1:      Triplet-A      1.2093 eV 1025.26 nm  f=0.0000  <S**2>=2.000
      89 -> 91         0.25607
      90 -> 91         0.66297
      90 -> 92        -0.10147
      90 <- 91         0.20463
 This state for optimization and/or second-order correction.
 Total Energy, E(TD-HF/TD-DFT) =  -1543.23770834
 Copying the excited state density for this state as the 1-particle RhoCI density.

 Excited State   2:      Triplet-A      2.7022 eV  458.82 nm  f=0.0000  <S**2>=2.000
      85 -> 91        -0.18798
      89 -> 91         0.50254
      90 -> 91        -0.26040
      90 -> 92        -0.21349
      90 -> 93         0.22724

 Excited State   3:      Triplet-A      2.8370 eV  437.02 nm  f=0.0000  <S**2>=2.000
      78 -> 92         0.21965
      79 -> 92        -0.11528
      80 -> 91        -0.11292
      80 -> 92        -0.44894
      81 -> 92        -0.23467
      82 -> 92         0.35358
      83 -> 92        -0.12886
      87 -> 92         0.10505
      80 <- 92        -0.11822

 Excited State   4:      Singlet-A      2.8730 eV  431.55 nm  f=0.1480  <S**2>=0.000
      89 -> 91        -0.14445
      90 -> 91         0.62503
      90 -> 92         0.28484

 Excited State   5:      Singlet-A      3.0749 eV  403.22 nm  f=0.0711  <S**2>=0.000
      89 -> 91         0.15939
      90 -> 91        -0.25963
      90 -> 92         0.62127

 Excited State   6:      Singlet-A      3.3419 eV  371.00 nm  f=0.0098  <S**2>=0.000
      88 -> 91         0.56759
      89 -> 91        -0.39171
      90 -> 91        -0.10512

 The electronic state is 1-A.
 Alpha  occ. eigenvalues -- -101.59429 -19.30868 -19.22774 -19.22624 -19.21730
 Alpha  occ. eigenvalues --  -14.60977 -14.57441 -14.43961 -10.31599 -10.30459
 Alpha  occ. eigenvalues --  -10.29596 -10.28977 -10.27834 -10.26420 -10.23470
 Alpha  occ. eigenvalues --  -10.22315 -10.22141 -10.21815 -10.21812 -10.21118
 Alpha  occ. eigenvalues --  -10.21056 -10.18975 -10.18949 -10.18912  -9.50885
 Alpha  occ. eigenvalues --   -7.27343  -7.26302  -7.26262  -1.26642  -1.24762
 Alpha  occ. eigenvalues --   -1.14932  -1.09527  -0.96529  -0.92275  -0.91677
 Alpha  occ. eigenvalues --   -0.88953  -0.87082  -0.83614  -0.81631  -0.78785
 Alpha  occ. eigenvalues --   -0.77027  -0.74989  -0.70102  -0.69872  -0.69626
 Alpha  occ. eigenvalues --   -0.67276  -0.66302  -0.63140  -0.62117  -0.59723
 Alpha  occ. eigenvalues --   -0.58797  -0.56898  -0.56634  -0.56180  -0.54758
 Alpha  occ. eigenvalues --   -0.54400  -0.53220  -0.52472  -0.49184  -0.48641
 Alpha  occ. eigenvalues --   -0.48179  -0.46850  -0.46527  -0.45363  -0.45290
 Alpha  occ. eigenvalues --   -0.44824  -0.44536  -0.44263  -0.43465  -0.41096
 Alpha  occ. eigenvalues --   -0.40837  -0.39376  -0.39281  -0.38812  -0.37968
 Alpha  occ. eigenvalues --   -0.37681  -0.37414  -0.35755  -0.35474  -0.34733
 Alpha  occ. eigenvalues --   -0.34583  -0.34228  -0.33994  -0.33450  -0.32400
 Alpha  occ. eigenvalues --   -0.32284  -0.30929  -0.27509  -0.27062  -0.24818
 Alpha virt. eigenvalues --   -0.12934  -0.10958  -0.05669  -0.04325  -0.03216
 Alpha virt. eigenvalues --   -0.02517  -0.01619  -0.00883  -0.00307   0.01072
 Alpha virt. eigenvalues --    0.01225   0.01497   0.02272   0.02495   0.03064

 Mulliken charges:
               1
     1  C   -0.478225
     2  C    0.475300
     3  C   -0.506515
     4  C   -0.501147
     5  C    0.147144
     6  C   -0.259589
     7  C   -0.568601
     8  C    0.766710
     9  C    0.865283
    10  C    0.071031
    11  N   -0.412362
    12  O    0.052789
    13  O    0.050567
    14  C   -0.355611
    15  Cl   0.322762
    16  C    0.422999
    17  C   -0.522420
    18  C   -0.547588
    19  N   -0.557681
    20  O    0.415701
    21  N   -0.534433
    22  O    0.036366
    23  C   -0.200137
    24  C   -0.235092
    25  H    0.153446
    26  H    0.150317
    27  H    0.153492
    28  H    0.144030
    29  H    0.147702
    30  H    0.155127
    31  H    0.148064
    32  H    0.154251
    33  H    0.142872
    34  H    0.126080
    35  H    0.132161
    36  H    0.182683
    37  H    0.141777
    38  H    0.120745
 Sum of Mulliken charges =  -0.00000

 Dipole moment (field-independent basis, Debye):
    X=              2.3279    Y=              0.0095    Z=              0.0116  Tot=              2.3280
 Quadrupole moment (field-independent basis, Debye-Ang):
   XX=           -134.4916   YY=           -169.0072   ZZ=           -147.1852
   XY=              9.5714   XZ=              1.0568   YZ=             -4.5755

 Normal termination of Gaussian 16 at Tue Oct  7 12:32:23 2025.
