 Gaussian 16, Revision C.02,
 Gaussian 16:  ES64L-G16RevC.02  7-Dec-2021

 ----------------------------------------------------------
 # td=(50-50,nstates=3) b3lyp/6-31+g(d,p) geom=connectivity
 ----------------------------------------------------------

 -------------------
 Title Card Required
 -------------------
 Symbolic Z-matrix:
 Charge =  0 Multiplicity = 1

                         Standard orientation:
 ---------------------------------------------------------------------
 Center     Atomic      Atomic             Coordinates (Angstroms)
 Number     Number       Type             X           Y           Z
 ---------------------------------------------------------------------
      1          6           0       -0.030990    3.380727    0.562273
      2          6           0        1.087433    2.373929    0.365033
      3          6           0        2.373009    2.881280    0.050821
      4          6           0        3.442479    2.056679   -0.192120
      5          6           0        3.290868    0.652055   -0.108380
      6          7           0        4.383477   -0.107141   -0.404584
      7          6           0        4.222636   -1.414640   -0.329979
      8          7           0        5.258212   -2.221347   -0.730141
      9          7           0        3.114187   -2.061149    0.107836
     10          6           0        2.050076   -1.337575    0.421940
     11          7           0        0.988622   -2.090569    0.877367
     12          6           0        2.016629    0.107175    0.269674
     13          6           0        0.894698    0.991168    0.471243
     14          6           0       -0.526340    0.494395    0.703060
     15          6           0       -1.172426   -0.106637   -0.576180
     16          6           0       -2.546844   -0.688922   -0.329785
     17          6           0       -2.691281   -2.071370   -0.118661
     18          6           0       -3.931926   -2.657075    0.133610
     19          6           0       -5.078479   -1.860844    0.178319
     20          6           0       -4.973672   -0.485926   -0.033539
     21          6           0       -3.721249    0.078856   -0.282082
     22         17           0       -3.658308    1.823968   -0.559862
     23          1           0       -0.454277    3.340266    1.573046
     24          1           0        0.347792    4.395251    0.411908
     25          1           0       -0.858243    3.234355   -0.140198
     26          1           0        2.503556    3.958310   -0.017971
     27          1           0        4.418718    2.444600   -0.462339
     28          1           0        5.236829   -3.181350   -0.422784
     29          1           0        6.159387   -1.779724   -0.831830
     30          1           0        0.338590   -1.679029    1.525758
     31          1           0        1.253749   -3.045239    1.083555
     32          1           0       -0.590239   -0.228902    1.521694
     33          1           0       -1.147275    1.325029    1.038166
     34          1           0       -1.222875    0.680009   -1.335647
     35          1           0       -0.525734   -0.894466   -0.969824
     36          1           0       -1.800180   -2.691835   -0.166008
     37          1           0       -4.003395   -3.729741    0.286755
     38          1           0       -6.051752   -2.302309    0.370094
     39          1           0       -5.852618    0.149114   -0.011539
 ---------------------------------------------------------------------

 SCF Done:  E(RB3LYP) =  -1337.35652403     A.U. after   15 cycles

 Excitation energies and oscillator strengths:

 Excited State   1:      Triplet-A      2.7107 eV  457.39 nm  f=0.0000  <S**2>=2.000
      81 -> 83        -0.14464
      82 -> 83         0.65953
      82 -> 86        -0.12679
 This state for optimization and/or second-order correction.
 Total Energy, E(TD-HF/TD-DFT) =  -1337.25690810
 Copying the excited state density for this state as the 1-particle RhoCI density.

 Excited State   2:      Triplet-A      3.5212 eV  352.11 nm  f=0.0000  <S**2>=2.000
      77 -> 83         0.14325
      80 -> 83        -0.15103
      81 -> 83         0.33702
      82 -> 83         0.22144
      82 -> 86         0.46351

 Excited State   3:      Triplet-A      3.6427 eV  340.37 nm  f=0.0000  <S**2>=2.000
      77 -> 84        -0.22206
      77 -> 85        -0.15635
      78 -> 84        -0.32798
      78 -> 85        -0.11545
      79 -> 84        -0.24137
      79 -> 85         0.39867
      81 -> 85         0.21724

 Excited State   4:      Singlet-A      3.7033 eV  334.79 nm  f=0.0881  <S**2>=0.000
      82 -> 83         0.68665

 Excited State   5:      Singlet-A      4.3243 eV  286.72 nm  f=0.0011  <S**2>=0.000
      80 -> 83         0.64896
      81 -> 83         0.24004

 Excited State   6:      Singlet-A      4.3842 eV  282.79 nm  f=0.0018  <S**2>=0.000
      82 -> 84         0.69005
      82 -> 85         0.13261

 The electronic state is 1-A.
 Alpha  occ. eigenvalues -- -101.56024 -14.36544 -14.34950 -14.32772 -14.31290
 Alpha  occ. eigenvalues --  -10.28560 -10.28411 -10.26308 -10.23068 -10.22192
 Alpha  occ. eigenvalues --  -10.21425 -10.21413 -10.21149 -10.21042 -10.20949
 Alpha  occ. eigenvalues --  -10.20892 -10.20559 -10.20293 -10.20257 -10.19648
 Alpha  occ. eigenvalues --  -10.18803 -10.18649  -9.47504  -7.23897  -7.22952
 Alpha  occ. eigenvalues --   -7.22920  -1.00319  -0.94847  -0.90189  -0.89738
 Alpha  occ. eigenvalues --   -0.86842  -0.85109  -0.84517  -0.80837  -0.77242
 Alpha  occ. eigenvalues --   -0.77093  -0.74738  -0.72917  -0.69350  -0.66497
 Alpha  occ. eigenvalues --   -0.64898  -0.63340  -0.62086  -0.59713  -0.59055
 Alpha  occ. eigenvalues --   -0.56052  -0.54320  -0.53014  -0.52173  -0.50864
 Alpha  occ. eigenvalues --   -0.49307  -0.48786  -0.47304  -0.46582  -0.45709
 Alpha  occ. eigenvalues --   -0.44681  -0.44180  -0.43840  -0.43243  -0.42996
 Alpha  occ. eigenvalues --   -0.42063  -0.41546  -0.40395  -0.39286  -0.38375
 Alpha  occ. eigenvalues --   -0.37667  -0.37294  -0.36852  -0.36304  -0.35643
 Alpha  occ. eigenvalues --   -0.35009  -0.34340  -0.33792  -0.32101  -0.31091
 Alpha  occ. eigenvalues --   -0.28652  -0.27018  -0.26496  -0.25599  -0.24978
 Alpha  occ. eigenvalues --   -0.24953  -0.20717
 Alpha virt. eigenvalues --   -0.05209  -0.03021  -0.02759  -0.01381  -0.00866
 Alpha virt. eigenvalues --   -0.00321   0.00590   0.00923   0.01686   0.01819
 Alpha virt. eigenvalues --    0.02092   0.02718   0.03220   0.03481   0.03863

 Mulliken charges:
               1
     1  C   -0.707377
     2  C    0.076341
     3  C   -0.323383
     4  C   -0.569010
     5  C    0.011407
     6  N   -0.377945
     7  C    0.509919
     8  N   -0.528805
     9  N   -0.418889
    10  C    0.122067
    11  N   -0.548806
    12  C    0.214538
    13  C    0.418558
    14  C   -0.141431
    15  C   -0.702107
    16  C   -0.301519
    17  C   -0.256950
    18  C   -0.151951
    19  C    0.070646
    20  C   -0.087312
    21  C    0.453817
    22  Cl   0.174235
    23  H    0.163029
    24  H    0.146224
    25  H    0.172888
    26  H    0.122035
    27  H    0.135721
    28  H    0.297519
    29  H    0.302401
    30  H    0.279845
    31  H    0.328026
    32  H    0.097076
    33  H    0.154465
    34  H    0.163243
    35  H    0.158933
    36  H    0.136250
    37  H    0.129594
    38  H    0.131429
    39  H    0.145277
 Sum of Mulliken charges =  -0.00000

 Dipole moment (field-independent basis, Debye):
    X=             -1.6975    Y=             -1.8681    Z=              2.0930  Tot=              3.2790
 Quadrupole moment (field-independent basis, Debye-Ang):
   XX=           -131.9766   YY=           -124.1499   ZZ=           -141.2818
   XY=              0.7020   XZ=             -0.7568   YZ=             -3.8387

 Normal termination of Gaussian 16 at Tue Oct  7 12:34:08 2025.
