 Gaussian 16, Revision C.02,
 Gaussian 16:  ES64L-G16RevC.02  7-Dec-2021

 ----------------------------------------------------------
 # td=(50-50,nstates=3) b3lyp/6-31+g(d,p) geom=connectivity
 ----------------------------------------------------------

 -------------------
 Title Card Required
 -------------------
 Symbolic Z-matrix:
 Charge =  0 Multiplicity = 1

                         Standard orientation:
 ---------------------------------------------------------------------
 Center     Atomic      Atomic             Coordinates (Angstroms)
 Number     Number       Type             X           Y           Z
 ---------------------------------------------------------------------
      1         17           0        3.447725   -1.335203    0.068108
      2          6           0        2.179082   -0.108989    0.009544
      3          6           0        2.540779    1.236238   -0.043757
      4          6           0        1.507799    2.177371   -0.085061
      5          6           0        0.168635    1.796679   -0.075888
      6          6           0       -0.188723    0.427152   -0.021100
      7          7           0       -1.506247    0.031721   -0.010864
      8          6           0       -1.934344   -1.366134   -0.061537
      9          6           0       -3.446767   -1.273657   -0.314611
     10          6           0       -3.837016    0.057178    0.349526
     11          6           0       -2.630872    0.964450    0.062595
     12          6           0        0.853762   -0.530364    0.023170
     13          1           0        3.582551    1.533005   -0.053223
     14          1           0        1.754735    3.234455   -0.130361
     15          1           0       -0.599783    2.559038   -0.121801
     16          1           0       -1.715226   -1.884261    0.886212
     17          1           0       -1.414842   -1.907893   -0.861584
     18          1           0       -3.641502   -1.229138   -1.392437
     19          1           0       -3.989662   -2.132914    0.088902
     20          1           0       -3.950280   -0.079921    1.431203
     21          1           0       -4.772181    0.473679   -0.035192
     22          1           0       -2.755680    1.513139   -0.885017
     23          1           0       -2.475426    1.706501    0.855495
     24          1           0        0.635698   -1.588819    0.078712
 ---------------------------------------------------------------------

 SCF Done:  E(RB3LYP) =  -903.271151916     A.U. after   15 cycles

 Excitation energies and oscillator strengths:

 Excited State   1:      Triplet-A      3.4949 eV  354.75 nm  f=0.0000  <S**2>=2.000
      46 -> 51         0.10917
      47 -> 49         0.31436
      48 -> 51         0.58905
      48 -> 55        -0.12621
 This state for optimization and/or second-order correction.
 Total Energy, E(TD-HF/TD-DFT) =  -903.142715593
 Copying the excited state density for this state as the 1-particle RhoCI density.

 Excited State   2:      Triplet-A      3.5746 eV  346.85 nm  f=0.0000  <S**2>=2.000
      48 -> 49         0.69037

 Excited State   3:      Triplet-A      4.2515 eV  291.63 nm  f=0.0000  <S**2>=2.000
      47 -> 49         0.60083
      48 -> 51        -0.32593

 Excited State   4:      Singlet-A      4.3272 eV  286.52 nm  f=0.0506  <S**2>=0.000
      47 -> 51        -0.17111
      48 -> 49         0.68264

 Excited State   5:      Singlet-A      4.5581 eV  272.01 nm  f=0.0192  <S**2>=0.000
      48 -> 50         0.69400

 Excited State   6:      Singlet-A      4.9218 eV  251.91 nm  f=0.0035  <S**2>=0.000
      48 -> 52         0.67393
      48 -> 54         0.14881

 The electronic state is 1-A.
 Alpha  occ. eigenvalues -- -101.54478 -14.36174 -10.24978 -10.24124 -10.23204
 Alpha  occ. eigenvalues --  -10.23159 -10.20466 -10.20439 -10.19916 -10.19404
 Alpha  occ. eigenvalues --  -10.19014 -10.18917  -9.45991  -7.22386  -7.21431
 Alpha  occ. eigenvalues --   -7.21404  -0.96614  -0.88206  -0.83562  -0.79960
 Alpha  occ. eigenvalues --   -0.75639  -0.73739  -0.72316  -0.64343  -0.62028
 Alpha  occ. eigenvalues --   -0.58995  -0.57497  -0.53945  -0.51111  -0.49530
 Alpha  occ. eigenvalues --   -0.47337  -0.44988  -0.44186  -0.42871  -0.42762
 Alpha  occ. eigenvalues --   -0.41373  -0.41262  -0.38623  -0.37314  -0.36406
 Alpha  occ. eigenvalues --   -0.36119  -0.35201  -0.34721  -0.33408  -0.30772
 Alpha  occ. eigenvalues --   -0.28838  -0.24561  -0.19937
 Alpha virt. eigenvalues --   -0.01519  -0.00497  -0.00067   0.00861   0.01399
 Alpha virt. eigenvalues --    0.02018   0.02196   0.02854   0.03661   0.04151
 Alpha virt. eigenvalues --    0.05598   0.05655   0.05904   0.06089   0.07551

 Mulliken charges:
               1
     1  Cl   0.220103
     2  C   -0.007067
     3  C   -0.368443
     4  C   -0.338571
     5  C    0.375028
     6  C   -0.483685
     7  N   -0.047134
     8  C    0.011839
     9  C   -0.503672
    10  C   -0.484391
    11  C    0.009627
    12  C   -0.052023
    13  H    0.135287
    14  H    0.125967
    15  H    0.109565
    16  H    0.143074
    17  H    0.141752
    18  H    0.155510
    19  H    0.148262
    20  H    0.155420
    21  H    0.147757
    22  H    0.141529
    23  H    0.139964
    24  H    0.124301
 Sum of Mulliken charges =  -0.00000

 Dipole moment (field-independent basis, Debye):
    X=             -4.1744    Y=              0.5695    Z=             -0.0343  Tot=              4.2132
 Quadrupole moment (field-independent basis, Debye-Ang):
   XX=            -77.0445   YY=            -75.3859   ZZ=            -82.8078
   XY=              4.3367   XZ=             -0.2404   YZ=             -0.0851

 Normal termination of Gaussian 16 at Tue Oct  7 12:15:44 2025.
