 Gaussian 16, Revision C.02,
 Gaussian 16:  ES64L-G16RevC.02  7-Dec-2021

 ----------------------------------------------------------
 # td=(50-50,nstates=3) b3lyp/6-31+g(d,p) geom=connectivity
 ----------------------------------------------------------

 -------------------
 Title Card Required
 -------------------
 Symbolic Z-matrix:
 Charge =  0 Multiplicity = 1

                         Standard orientation:
 ---------------------------------------------------------------------
 Center     Atomic      Atomic             Coordinates (Angstroms)
 Number     Number       Type             X           Y           Z
 ---------------------------------------------------------------------
      1          6           0        5.593175    0.907669   -0.966578
      2          8           0        4.708733   -0.159338   -0.617285
      3          6           0        3.437903    0.114677   -0.270752
      4          6           0        2.895936    1.363739   -0.217688
      5          6           0        1.522570    1.616592    0.164894
      6          6           0        1.040143    2.912846    0.226728
      7          6           0       -0.345668    3.381342    0.617559
      8          6           0        1.939605    3.970866   -0.114088
      9          7           0        2.644866    4.859519   -0.386338
     10          6           0        0.719078    0.429258    0.478025
     11          8           0       -0.568998    0.664161    0.810324
     12          6           0       -1.412310   -0.443424    1.201934
     13          8           0       -2.629626    0.070861    1.590131
     14          6           0       -3.573326    0.340019    0.537875
     15          6           0       -4.490684   -0.864557    0.390342
     16         35           0       -5.926919   -0.486800   -0.892010
     17          6           0        1.266525   -0.823251    0.429326
     18          6           0        2.635199   -1.060844    0.061704
     19          6           0        3.133992   -2.361501    0.030780
     20          6           0        4.461221   -2.759769   -0.314570
     21          7           0        5.508071   -3.200071   -0.575752
     22          6           0        2.269453   -3.449542    0.369379
     23          7           0        1.540388   -4.315134    0.648839
     24          1           0        6.541837    0.427929   -1.204213
     25          1           0        5.219282    1.451737   -1.841094
     26          1           0        5.722744    1.596591   -0.124470
     27          1           0        3.507193    2.221812   -0.462663
     28          1           0       -0.630235    3.004993    1.603073
     29          1           0       -0.378364    4.471809    0.631195
     30          1           0       -1.097490    3.020876   -0.091195
     31          1           0       -1.490974   -1.136182    0.351926
     32          1           0       -0.965757   -0.939491    2.068883
     33          1           0       -4.140006    1.219817    0.849402
     34          1           0       -3.058464    0.573104   -0.400335
     35          1           0       -3.968698   -1.745177    0.015199
     36          1           0       -4.976491   -1.099339    1.336715
     37          1           0        0.666590   -1.690877    0.666085
 ---------------------------------------------------------------------

 SCF Done:  E(RB3LYP) =  -3579.71952645     A.U. after   17 cycles

 Excitation energies and oscillator strengths:

 Excited State   1:      Triplet-A      0.9293 eV 1334.20 nm  f=0.0000  <S**2>=2.000
      95 -> 96         0.74337
      95 <- 96         0.25779
 This state for optimization and/or second-order correction.
 Total Energy, E(TD-HF/TD-DFT) =  -3579.68537622
 Copying the excited state density for this state as the 1-particle RhoCI density.

 Excited State   2:      Triplet-A      2.0647 eV  600.49 nm  f=0.0000  <S**2>=2.000
      94 -> 96         0.69629

 Excited State   3:      Singlet-A      2.7037 eV  458.56 nm  f=0.0478  <S**2>=0.000
      94 -> 96         0.65737
      95 -> 96         0.24761

 Excited State   4:      Singlet-A      3.0142 eV  411.33 nm  f=0.8403  <S**2>=0.000
      94 -> 96        -0.24638
      95 -> 96         0.66997
      95 <- 96        -0.14491

 Excited State   5:      Triplet-A      3.3259 eV  372.78 nm  f=0.0000  <S**2>=2.000
      91 -> 96         0.58431
      95 -> 97         0.36854

 Excited State   6:      Singlet-A      3.8663 eV  320.68 nm  f=0.0002  <S**2>=0.000
      92 -> 96         0.17179
      93 -> 96         0.68549

 The electronic state is 1-A.
 Alpha  occ. eigenvalues -- -482.93761 -61.89823 -56.41544 -56.41169 -56.41151
 Alpha  occ. eigenvalues --  -19.24053 -19.22820 -19.21838 -14.37079 -14.36649
 Alpha  occ. eigenvalues --  -14.35442 -10.34154 -10.31789 -10.30612 -10.28745
 Alpha  occ. eigenvalues --  -10.28518 -10.28203 -10.28054 -10.27221 -10.27134
 Alpha  occ. eigenvalues --  -10.27085 -10.26034 -10.26029 -10.25171 -10.24078
 Alpha  occ. eigenvalues --  -10.23687 -10.22545  -8.60483  -6.55733  -6.54464
 Alpha  occ. eigenvalues --   -6.54438  -2.67282  -2.66930  -2.66909  -2.65896
 Alpha  occ. eigenvalues --   -2.65896  -1.14342  -1.11635  -1.08755  -0.94157
 Alpha  occ. eigenvalues --   -0.93930  -0.91980  -0.91139  -0.87318  -0.84889
 Alpha  occ. eigenvalues --   -0.82614  -0.80730  -0.77941  -0.77141  -0.74120
 Alpha  occ. eigenvalues --   -0.71959  -0.69874  -0.67443  -0.65223  -0.63792
 Alpha  occ. eigenvalues --   -0.60840  -0.59154  -0.57688  -0.56327  -0.55746
 Alpha  occ. eigenvalues --   -0.55072  -0.52727  -0.50848  -0.50499  -0.49721
 Alpha  occ. eigenvalues --   -0.49081  -0.47179  -0.46796  -0.46706  -0.45261
 Alpha  occ. eigenvalues --   -0.44834  -0.43854  -0.43601  -0.42180  -0.41687
 Alpha  occ. eigenvalues --   -0.40774  -0.39981  -0.39689  -0.39255  -0.38944
 Alpha  occ. eigenvalues --   -0.38775  -0.38413  -0.37824  -0.37171  -0.36145
 Alpha  occ. eigenvalues --   -0.35844  -0.35800  -0.34408  -0.33754  -0.33572
 Alpha  occ. eigenvalues --   -0.32952  -0.30233  -0.30118  -0.27035  -0.24466
 Alpha virt. eigenvalues --   -0.14634  -0.05266  -0.04168  -0.02551  -0.02046
 Alpha virt. eigenvalues --   -0.01798  -0.01192  -0.00548   0.00129   0.00289
 Alpha virt. eigenvalues --    0.00736   0.01203   0.01674   0.01844   0.02317

 Mulliken charges:
               1
     1  C   -0.116654
     2  O   -0.337889
     3  C   -0.172010
     4  C   -0.815637
     5  C    0.199398
     6  C    1.544762
     7  C   -0.548875
     8  C   -0.444789
     9  N   -0.490523
    10  C    0.090841
    11  O   -0.420359
    12  C    0.209613
    13  O   -0.303958
    14  C    0.001558
    15  C   -0.376690
    16  Br  -0.107957
    17  C   -0.357812
    18  C    0.180965
    19  C    1.555664
    20  C   -0.019064
    21  N   -0.521275
    22  C   -0.571005
    23  N   -0.480618
    24  H    0.170849
    25  H    0.156277
    26  H    0.156632
    27  H    0.149076
    28  H    0.191126
    29  H    0.166736
    30  H    0.180594
    31  H    0.130493
    32  H    0.152536
    33  H    0.165129
    34  H    0.157650
    35  H    0.178799
    36  H    0.199848
    37  H    0.146570
 Sum of Mulliken charges =  -0.00000

 Dipole moment (field-independent basis, Debye):
    X=             -3.5423    Y=              3.7771    Z=              0.8289  Tot=              5.2442
 Quadrupole moment (field-independent basis, Debye-Ang):
   XX=           -166.1737   YY=           -190.7021   ZZ=           -148.7647
   XY=             14.6302   XZ=             -3.0653   YZ=              1.4510

 Normal termination of Gaussian 16 at Tue Aug 26 09:05:05 2025.
