 Gaussian 16, Revision C.02,
 Gaussian 16:  ES64L-G16RevC.02  7-Dec-2021

 ----------------------------------------------------------
 # td=(50-50,nstates=3) b3lyp/6-31+g(d,p) geom=connectivity
 ----------------------------------------------------------

 -------------------
 Title Card Required
 -------------------
 Symbolic Z-matrix:
 Charge =  0 Multiplicity = 1

                         Standard orientation:
 ---------------------------------------------------------------------
 Center     Atomic      Atomic             Coordinates (Angstroms)
 Number     Number       Type             X           Y           Z
 ---------------------------------------------------------------------
      1          6           0       -6.792121    0.522996   -0.392163
      2          6           0       -5.298968    0.311259   -0.297000
      3          6           0       -4.703846   -0.847252   -0.809619
      4          6           0       -3.320886   -1.053051   -0.758735
      5          6           0       -2.726187   -2.319725   -1.333916
      6          6           0       -2.504254   -0.061163   -0.172058
      7          6           0       -1.033005   -0.266549   -0.102153
      8          6           0       -0.075251    0.080495   -0.979043
      9          6           0        1.266887   -0.408216   -0.492593
     10          6           0        2.390574    0.618158   -0.379861
     11          6           0        2.079381    1.981753   -0.307868
     12          6           0        3.077157    2.951658   -0.192776
     13          6           0        4.413784    2.560478   -0.152396
     14          6           0        4.739927    1.204141   -0.222377
     15          6           0        3.746912    0.224720   -0.331503
     16          6           0        4.107152   -1.258816   -0.385406
     17          6           0        5.542140   -1.545858   -0.345821
     18          7           0        6.676999   -1.791345   -0.319644
     19          6           0        0.905476   -1.067694    0.861732
     20          8           0        1.667867   -1.607574    1.654296
     21          7           0       -0.459021   -0.952167    1.009336
     22          6           0       -1.175251   -1.443404    2.175080
     23          6           0       -3.080819    1.113514    0.355600
     24          6           0       -2.230126    2.196756    0.981811
     25          6           0       -4.469700    1.276229    0.283936
     26          1           0       -7.336770   -0.421902   -0.300128
     27          1           0       -7.150642    1.200056    0.388917
     28          1           0       -7.064813    0.963822   -1.359338
     29          1           0       -5.331761   -1.613073   -1.259746
     30          1           0       -3.511833   -2.987283   -1.697209
     31          1           0       -2.053886   -2.100299   -2.170484
     32          1           0       -2.136680   -2.869502   -0.591363
     33          1           0       -0.243759    0.592640   -1.916695
     34          1           0        1.601753   -1.231168   -1.141429
     35          1           0        1.037459    2.283784   -0.342667
     36          1           0        2.807463    4.002226   -0.137056
     37          1           0        5.203575    3.300749   -0.066492
     38          1           0        5.782334    0.903095   -0.188198
     39          1           0        3.627459   -1.779403    0.452971
     40          1           0        3.715155   -1.715667   -1.304481
     41          1           0       -1.662104   -0.624362    2.713896
     42          1           0       -1.936770   -2.175145    1.889005
     43          1           0       -0.441150   -1.918908    2.827059
     44          1           0       -2.856653    2.950138    1.466591
     45          1           0       -1.540606    1.797428    1.733134
     46          1           0       -1.616974    2.705128    0.229147
     47          1           0       -4.913434    2.180236    0.695108
 ---------------------------------------------------------------------

 SCF Done:  E(RB3LYP) =  -1036.38912830     A.U. after   18 cycles

 Excitation energies and oscillator strengths:

 Excited State   1:      Triplet-A      3.2891 eV  376.96 nm  f=0.0000  <S**2>=2.000
      88 -> 90         0.57951
      88 -> 91         0.21210
      88 -> 92        -0.19415
      88 -> 93        -0.12115
 This state for optimization and/or second-order correction.
 Total Energy, E(TD-HF/TD-DFT) =  -1036.26825653
 Copying the excited state density for this state as the 1-particle RhoCI density.

 Excited State   2:      Triplet-A      3.5892 eV  345.44 nm  f=0.0000  <S**2>=2.000
      85 -> 91        -0.23174
      85 -> 92        -0.34951
      86 -> 89         0.49477
      86 -> 90         0.11962
      87 -> 89         0.17702

 Excited State   3:      Triplet-A      3.6667 eV  338.14 nm  f=0.0000  <S**2>=2.000
      83 -> 91         0.14032
      84 -> 91         0.10229
      84 -> 93         0.40283
      86 -> 91        -0.12870
      87 -> 89         0.15094
      87 -> 90        -0.23296
      87 -> 91         0.31710
      87 -> 92        -0.18641
      87 -> 93        -0.11789

 Excited State   4:      Singlet-A      4.5955 eV  269.80 nm  f=0.0018  <S**2>=0.000
      88 -> 89         0.69922

 Excited State   5:      Singlet-A      4.7190 eV  262.73 nm  f=0.0203  <S**2>=0.000
      87 -> 90         0.10679
      88 -> 90         0.67378

 Excited State   6:      Singlet-A      4.9006 eV  253.00 nm  f=0.0086  <S**2>=0.000
      87 -> 90         0.20583
      88 -> 91         0.65543

 The electronic state is 1-A.
 Alpha  occ. eigenvalues --  -19.14324 -14.39545 -14.33824 -10.30689 -10.25136
 Alpha  occ. eigenvalues --  -10.23735 -10.23473 -10.23246 -10.22886 -10.22262
 Alpha  occ. eigenvalues --  -10.22061 -10.22055 -10.22028 -10.21688 -10.21587
 Alpha  occ. eigenvalues --  -10.20355 -10.20293 -10.20236 -10.20135 -10.20110
 Alpha  occ. eigenvalues --  -10.20104 -10.20043 -10.20012 -10.19970 -10.19926
 Alpha  occ. eigenvalues --   -1.05957  -0.97847  -0.90816  -0.88200  -0.87875
 Alpha  occ. eigenvalues --   -0.83066  -0.80792  -0.80342  -0.79985  -0.76852
 Alpha  occ. eigenvalues --   -0.73872  -0.72814  -0.71769  -0.70743  -0.69647
 Alpha  occ. eigenvalues --   -0.68347  -0.63315  -0.61149  -0.59480  -0.59366
 Alpha  occ. eigenvalues --   -0.58531  -0.55625  -0.53047  -0.52396  -0.51847
 Alpha  occ. eigenvalues --   -0.50391  -0.48279  -0.47695  -0.47470  -0.46961
 Alpha  occ. eigenvalues --   -0.45605  -0.45292  -0.44995  -0.44021  -0.43807
 Alpha  occ. eigenvalues --   -0.43478  -0.43361  -0.42782  -0.42607  -0.42087
 Alpha  occ. eigenvalues --   -0.42033  -0.41674  -0.40978  -0.40514  -0.40250
 Alpha  occ. eigenvalues --   -0.38717  -0.38268  -0.37167  -0.36459  -0.36020
 Alpha  occ. eigenvalues --   -0.35801  -0.35566  -0.35323  -0.34800  -0.33150
 Alpha  occ. eigenvalues --   -0.32818  -0.32537  -0.28441  -0.26213  -0.25740
 Alpha  occ. eigenvalues --   -0.25580  -0.25172  -0.23067
 Alpha virt. eigenvalues --   -0.03278  -0.03243  -0.02479  -0.02375  -0.02100
 Alpha virt. eigenvalues --   -0.01212  -0.00249   0.00277   0.00766   0.01263
 Alpha virt. eigenvalues --    0.01553   0.02229   0.02496   0.02635   0.02855

 Mulliken charges:
               1
     1  C   -0.534197
     2  C    0.495830
     3  C   -0.346779
     4  C    0.215683
     5  C   -0.593397
     6  C    0.118363
     7  C   -0.293171
     8  C   -0.686282
     9  C    0.104038
    10  C    0.653098
    11  C   -0.247536
    12  C   -0.404571
    13  C   -0.362133
    14  C   -0.641293
    15  C    1.223465
    16  C   -0.135071
    17  C   -0.158535
    18  N   -0.512483
    19  C    0.230946
    20  O   -0.486431
    21  N    0.037066
    22  C   -0.191597
    23  C    0.369248
    24  C   -0.619865
    25  C   -0.647196
    26  H    0.156830
    27  H    0.154338
    28  H    0.169375
    29  H    0.116718
    30  H    0.146007
    31  H    0.168464
    32  H    0.158640
    33  H    0.140030
    34  H    0.160477
    35  H    0.126352
    36  H    0.126846
    37  H    0.130232
    38  H    0.146418
    39  H    0.247209
    40  H    0.180840
    41  H    0.154951
    42  H    0.155879
    43  H    0.186756
    44  H    0.146480
    45  H    0.158838
    46  H    0.164511
    47  H    0.116608
 Sum of Mulliken charges =  -0.00000

 Dipole moment (field-independent basis, Debye):
    X=             -8.3760    Y=              2.1863    Z=             -1.2771  Tot=              8.7503
 Quadrupole moment (field-independent basis, Debye-Ang):
   XX=           -179.9031   YY=           -144.0084   ZZ=           -151.0132
   XY=             16.6918   XZ=             -3.7525   YZ=              5.2674

 Normal termination of Gaussian 16 at Mon Aug 25 15:01:49 2025.
