 Gaussian 16, Revision C.02,
 Gaussian 16:  ES64L-G16RevC.02  7-Dec-2021

 ----------------------------------------------------------
 # td=(50-50,nstates=3) b3lyp/6-31+g(d,p) geom=connectivity
 ----------------------------------------------------------

 -------------------
 Title Card Required
 -------------------
 Symbolic Z-matrix:
 Charge =  0 Multiplicity = 1

                         Standard orientation:
 ---------------------------------------------------------------------
 Center     Atomic      Atomic             Coordinates (Angstroms)
 Number     Number       Type             X           Y           Z
 ---------------------------------------------------------------------
      1          6           0       -4.763440   -0.943120    1.424724
      2          6           0       -4.209394   -0.399033    0.106165
      3          6           0       -4.236507   -1.484875   -0.978650
      4          6           0       -4.971200    0.860747   -0.325698
      5          8           0       -2.827227   -0.055986    0.446309
      6          6           0       -2.034519    0.498954   -0.520580
      7          6           0       -0.872013    1.050981   -0.257498
      8          6           0        0.300987    1.610665   -0.041836
      9          6           0        1.604093    0.918065   -0.018661
     10          6           0        2.777792    1.666208    0.180799
     11          6           0        4.027067    1.053534    0.206262
     12          6           0        4.126680   -0.337031    0.031953
     13          6           0        5.408813   -0.978137    0.056032
     14          7           0        6.449862   -1.499573    0.074759
     15          6           0        2.957508   -1.098037   -0.165337
     16          6           0        1.717244   -0.475097   -0.187959
     17          1           0       -4.703170   -0.180810    2.206759
     18          1           0       -5.810047   -1.239825    1.304654
     19          1           0       -4.188217   -1.814921    1.749872
     20          1           0       -3.851989   -1.125402   -1.938302
     21          1           0       -5.265769   -1.818693   -1.145493
     22          1           0       -3.640296   -2.348348   -0.668446
     23          1           0       -6.028128    0.624243   -0.485938
     24          1           0       -4.902794    1.631144    0.448234
     25          1           0       -4.579469    1.276060   -1.259629
     26          1           0       -2.389206    0.444915   -1.548562
     27          1           0        0.343481    2.686805    0.140932
     28          1           0        2.707731    2.742036    0.315959
     29          1           0        4.925455    1.642168    0.359766
     30          1           0        3.034531   -2.172417   -0.296312
     31          1           0        0.818004   -1.064999   -0.335568
 ---------------------------------------------------------------------

 SCF Done:  E(RB3LYP) =  -672.474464505     A.U. after   16 cycles

 Excitation energies and oscillator strengths:

 Excited State   1:      Triplet-A      2.6981 eV  459.52 nm  f=0.0000  <S**2>=2.000
      55 -> 59        -0.14373
      56 -> 58         0.67348
 This state for optimization and/or second-order correction.
 Total Energy, E(TD-HF/TD-DFT) =  -672.375310093
 Copying the excited state density for this state as the 1-particle RhoCI density.

 Excited State   2:      Triplet-A      3.2340 eV  383.38 nm  f=0.0000  <S**2>=2.000
      57 -> 58         0.67661
      57 -> 62         0.13970

 Excited State   3:      Singlet-A      3.4941 eV  354.83 nm  f=0.0005  <S**2>=0.000
      57 -> 58         0.69239

 Excited State   4:      Triplet-A      3.9421 eV  314.51 nm  f=0.0000  <S**2>=2.000
      54 -> 58        -0.25465
      55 -> 59        -0.18158
      56 -> 60         0.11336
      56 -> 62        -0.16267
      57 -> 60        -0.10734
      57 -> 61         0.38826
      57 -> 62         0.14779
      57 -> 63         0.17778
      57 -> 65        -0.27729
      57 -> 67        -0.13865

 Excited State   5:      Singlet-A      4.4331 eV  279.68 nm  f=0.8113  <S**2>=0.000
      56 -> 58         0.68979

 Excited State   6:      Singlet-A      4.6484 eV  266.72 nm  f=0.0145  <S**2>=0.000
      55 -> 58         0.51902
      56 -> 59         0.46466

 The electronic state is 1-A.
 Alpha  occ. eigenvalues --  -19.18817 -14.34371 -10.27164 -10.26521 -10.24548
 Alpha  occ. eigenvalues --  -10.23563 -10.23107 -10.22528 -10.22454 -10.22441
 Alpha  occ. eigenvalues --  -10.21801 -10.21538 -10.20836 -10.19768 -10.19619
 Alpha  occ. eigenvalues --  -10.19112  -1.06766  -0.91354  -0.88634  -0.83339
 Alpha  occ. eigenvalues --   -0.81730  -0.77623  -0.77128  -0.72099  -0.71272
 Alpha  occ. eigenvalues --   -0.70484  -0.64745  -0.63685  -0.59153  -0.56866
 Alpha  occ. eigenvalues --   -0.55044  -0.51501  -0.50913  -0.50089  -0.47358
 Alpha  occ. eigenvalues --   -0.46403  -0.45413  -0.44862  -0.44272  -0.42974
 Alpha  occ. eigenvalues --   -0.42218  -0.41195  -0.40253  -0.39882  -0.38642
 Alpha  occ. eigenvalues --   -0.38140  -0.37458  -0.37195  -0.36455  -0.36404
 Alpha  occ. eigenvalues --   -0.34513  -0.33585  -0.33221  -0.30996  -0.28101
 Alpha  occ. eigenvalues --   -0.24600  -0.23895
 Alpha virt. eigenvalues --   -0.07582  -0.03512  -0.01182  -0.00417   0.00424
 Alpha virt. eigenvalues --    0.00674   0.01287   0.01910   0.02265   0.02294
 Alpha virt. eigenvalues --    0.02448   0.03430   0.03998   0.04142   0.04528

 Mulliken charges:
               1
     1  C   -0.364877
     2  C   -0.034839
     3  C   -0.410850
     4  C   -0.399586
     5  O   -0.218811
     6  C   -0.221597
     7  C   -0.094789
     8  C   -0.119808
     9  C    0.743589
    10  C   -0.184165
    11  C   -0.109900
    12  C    0.444407
    13  C   -0.261687
    14  N   -0.534121
    15  C   -0.325773
    16  C   -0.143937
    17  H    0.161474
    18  H    0.147417
    19  H    0.159915
    20  H    0.141290
    21  H    0.155074
    22  H    0.161694
    23  H    0.153071
    24  H    0.161938
    25  H    0.147064
    26  H    0.137270
    27  H    0.145584
    28  H    0.129908
    29  H    0.147125
    30  H    0.146636
    31  H    0.141284
 Sum of Mulliken charges =  -0.00000

 Dipole moment (field-independent basis, Debye):
    X=             -6.9252    Y=              1.7463    Z=             -1.0767  Tot=              7.2227
 Quadrupole moment (field-independent basis, Debye-Ang):
   XX=           -120.4658   YY=            -92.4898   ZZ=            -98.3447
   XY=             17.4907   XZ=              3.0296   YZ=              1.5479

 Normal termination of Gaussian 16 at Mon Aug 25 14:53:29 2025.
