 Gaussian 16, Revision C.02,
 Gaussian 16:  ES64L-G16RevC.02  7-Dec-2021

 ----------------------------------------------------------
 # td=(50-50,nstates=3) b3lyp/6-31+g(d,p) geom=connectivity
 ----------------------------------------------------------

 -------------------
 Title Card Required
 -------------------
 Symbolic Z-matrix:
 Charge =  0 Multiplicity = 1

                         Standard orientation:
 ---------------------------------------------------------------------
 Center     Atomic      Atomic             Coordinates (Angstroms)
 Number     Number       Type             X           Y           Z
 ---------------------------------------------------------------------
      1          6           0        2.775765   -2.052962   -1.318811
      2          6           0        3.123451   -0.911732   -0.691279
      3          6           0        4.522471   -0.599798   -0.524288
      4          7           0        5.653393   -0.369652   -0.382463
      5          6           0        2.168573    0.056250   -0.128290
      6          6           0        1.037006   -0.094968    0.592310
      7          6           0        0.433195   -1.398527    1.064082
      8          6           0        0.029196   -1.340235    2.549658
      9          6           0       -0.691111   -1.999004    0.163808
     10          6           0       -2.155638   -1.503160    0.358098
     11          6           0       -3.048662   -2.431932   -0.361770
     12          7           0       -3.731541   -3.174363   -0.938289
     13          6           0       -2.451145   -0.065422   -0.070404
     14          6           0       -2.164122    0.377900   -1.369040
     15          6           0       -2.441331    1.693151   -1.745600
     16          6           0       -3.018539    2.580635   -0.831365
     17          6           0       -3.325266    2.141418    0.458130
     18          6           0       -3.044158    0.824076    0.833746
     19          6           0        0.581721    1.293137    0.972777
     20          6           0        1.628013    2.197757    0.343325
     21          8           0        1.717846    3.394324    0.344613
     22          8           0        2.546605    1.390561   -0.307772
     23          1           0        1.737676   -2.298468   -1.505766
     24          1           0        3.530521   -2.747707   -1.669444
     25          1           0        1.241987   -2.136611    0.986963
     26          1           0       -0.346474   -2.313192    2.884095
     27          1           0        0.890770   -1.084667    3.174048
     28          1           0       -0.750224   -0.595398    2.739490
     29          1           0       -0.421097   -1.878194   -0.889750
     30          1           0       -0.704720   -3.077980    0.357019
     31          1           0       -2.415303   -1.599862    1.418768
     32          1           0       -1.730206   -0.304459   -2.094608
     33          1           0       -2.209452    2.024561   -2.753265
     34          1           0       -3.229963    3.604243   -1.124638
     35          1           0       -3.781358    2.820223    1.172476
     36          1           0       -3.290039    0.487993    1.838158
     37          1           0       -0.406310    1.567211    0.590431
     38          1           0        0.559112    1.461831    2.056025
 ---------------------------------------------------------------------

 SCF Done:  E(RB3LYP) =  -955.491841565     A.U. after   17 cycles

 Excitation energies and oscillator strengths:

 Excited State   1:      Triplet-A      2.6349 eV  470.55 nm  f=0.0000  <S**2>=2.000
      73 -> 78        -0.24957
      77 -> 78         0.62907
      77 -> 81         0.10501
 This state for optimization and/or second-order correction.
 Total Energy, E(TD-HF/TD-DFT) =  -955.395011588
 Copying the excited state density for this state as the 1-particle RhoCI density.

 Excited State   2:      Triplet-A      3.6763 eV  337.25 nm  f=0.0000  <S**2>=2.000
      73 -> 78         0.53303
      74 -> 78         0.18510
      77 -> 78         0.15895
      77 -> 81         0.29998
      77 -> 85         0.13241

 Excited State   3:      Triplet-A      3.7189 eV  333.39 nm  f=0.0000  <S**2>=2.000
      75 -> 80        -0.44015
      76 -> 79         0.51249

 Excited State   4:      Singlet-A      4.0627 eV  305.18 nm  f=0.1026  <S**2>=0.000
      73 -> 78         0.11217
      77 -> 78         0.68969

 Excited State   5:      Singlet-A      4.6421 eV  267.09 nm  f=0.0010  <S**2>=0.000
      76 -> 78         0.69955

 Excited State   6:      Singlet-A      4.7852 eV  259.10 nm  f=0.0019  <S**2>=0.000
      74 -> 78         0.10053
      75 -> 78         0.69690

 The electronic state is 1-A.
 Alpha  occ. eigenvalues --  -19.23231 -19.16989 -14.36195 -14.35670 -10.34564
 Alpha  occ. eigenvalues --  -10.29305 -10.28123 -10.27133 -10.25310 -10.25059
 Alpha  occ. eigenvalues --  -10.24868 -10.24564 -10.24040 -10.24001 -10.23868
 Alpha  occ. eigenvalues --  -10.23627 -10.22710 -10.22558 -10.22499 -10.22452
 Alpha  occ. eigenvalues --  -10.22325 -10.21707  -1.14093  -1.06076  -0.92924
 Alpha  occ. eigenvalues --   -0.92794  -0.89613  -0.87764  -0.85581  -0.83800
 Alpha  occ. eigenvalues --   -0.80107  -0.77954  -0.76021  -0.75258  -0.71126
 Alpha  occ. eigenvalues --   -0.68691  -0.64910  -0.64051  -0.62812  -0.61243
 Alpha  occ. eigenvalues --   -0.58529  -0.56107  -0.55691  -0.53976  -0.51804
 Alpha  occ. eigenvalues --   -0.50910  -0.50247  -0.49055  -0.48117  -0.47529
 Alpha  occ. eigenvalues --   -0.46967  -0.46134  -0.45392  -0.45072  -0.44609
 Alpha  occ. eigenvalues --   -0.43932  -0.42861  -0.42397  -0.41601  -0.40508
 Alpha  occ. eigenvalues --   -0.39597  -0.38979  -0.38693  -0.38550  -0.38103
 Alpha  occ. eigenvalues --   -0.37662  -0.37573  -0.37379  -0.36892  -0.35331
 Alpha  occ. eigenvalues --   -0.34524  -0.34094  -0.31503  -0.30044  -0.28693
 Alpha  occ. eigenvalues --   -0.28215  -0.26208
 Alpha virt. eigenvalues --   -0.09312  -0.04957  -0.04528  -0.03751  -0.02779
 Alpha virt. eigenvalues --   -0.01329  -0.00739  -0.00364  -0.00096   0.00844
 Alpha virt. eigenvalues --    0.01001   0.01452   0.01577   0.01834   0.02269

 Mulliken charges:
               1
     1  C   -0.393031
     2  C    0.488063
     3  C    0.107535
     4  N   -0.492498
     5  C    0.012229
     6  C    0.311636
     7  C   -0.063703
     8  C   -0.748828
     9  C   -0.249557
    10  C    0.299320
    11  C   -0.231180
    12  N   -0.433515
    13  C    0.322920
    14  C   -0.161389
    15  C   -0.095692
    16  C   -0.135917
    17  C   -0.072740
    18  C   -0.373540
    19  C   -0.285424
    20  C    0.403566
    21  O   -0.438870
    22  O   -0.239132
    23  H    0.150591
    24  H    0.171522
    25  H    0.144144
    26  H    0.155788
    27  H    0.164303
    28  H    0.153892
    29  H    0.142253
    30  H    0.160416
    31  H    0.171478
    32  H    0.121211
    33  H    0.134065
    34  H    0.135976
    35  H    0.132943
    36  H    0.117340
    37  H    0.218038
    38  H    0.195787
 Sum of Mulliken charges =  -0.00000

 Dipole moment (field-independent basis, Debye):
    X=             -3.4649    Y=             -1.7681    Z=              2.2766  Tot=              4.5072
 Quadrupole moment (field-independent basis, Debye-Ang):
   XX=           -177.1868   YY=           -143.6453   ZZ=           -120.5985
   XY=            -30.4609   XZ=             -8.0789   YZ=             -4.4457

 Normal termination of Gaussian 16 at Mon Aug 25 14:55:06 2025.
