 Gaussian 16, Revision C.02,
 Gaussian 16:  ES64L-G16RevC.02  7-Dec-2021

 ----------------------------------------------------------
 # td=(50-50,nstates=3) b3lyp/6-31+g(d,p) geom=connectivity
 ----------------------------------------------------------

 -------------------
 Title Card Required
 -------------------
 Symbolic Z-matrix:
 Charge =  0 Multiplicity = 1

                         Standard orientation:
 ---------------------------------------------------------------------
 Center     Atomic      Atomic             Coordinates (Angstroms)
 Number     Number       Type             X           Y           Z
 ---------------------------------------------------------------------
      1          6           0       -0.843204   -1.841176    2.703785
      2          6           0       -2.075868   -1.549415    2.245462
      3          6           0       -3.195461   -1.544929    3.153917
      4          7           0       -4.087693   -1.528808    3.899052
      5          6           0       -2.369100   -1.218431    0.841370
      6          6           0       -1.737690   -0.423017   -0.049083
      7          6           0       -0.547088    0.467768    0.254823
      8          6           0       -0.659079    1.822130   -0.460719
      9          6           0       -0.287876    1.962404   -1.844090
     10          6           0       -0.424129    3.177637   -2.425189
     11          8           0       -0.889063    4.259549   -1.775945
     12          6           0       -1.277998    4.206723   -0.416132
     13          8           0       -1.684752    5.225060    0.089010
     14          6           0       -1.132194    2.907074    0.214969
     15          6           0        0.868594   -0.103780    0.085153
     16          6           0        1.324669   -1.111768   -0.727112
     17          7           0        0.379608   -1.835618   -1.611134
     18          8           0        0.121252   -1.306065   -2.690752
     19          8           0       -0.052130   -2.908305   -1.212790
     20          6           0        2.705184   -1.547761   -0.811563
     21         17           0        3.128450   -2.815972   -1.924114
     22          6           0        3.679586   -0.966471   -0.046240
     23          6           0        3.245529    0.060316    0.820172
     24          6           0        1.894822    0.494479    0.902967
     25          7           0        1.746567    1.453608    1.804051
     26          8           0        2.986384    1.675601    2.328159
     27          7           0        3.950287    0.787985    1.703254
     28          8           0        5.122694    0.834788    2.040734
     29          6           0       -2.586215   -0.405346   -1.299438
     30          6           0       -3.743755   -1.325066   -0.946033
     31          8           0       -4.691076   -1.662545   -1.594224
     32          8           0       -3.539299   -1.781062    0.355223
     33          1           0        0.001444   -1.908126    2.028694
     34          1           0       -0.672060   -2.044732    3.754724
     35          1           0       -0.605346    0.689681    1.326735
     36          1           0        0.086782    1.130292   -2.426614
     37          1           0       -0.177076    3.398059   -3.457599
     38          1           0       -1.411521    2.863790    1.261545
     39          1           0        4.717492   -1.271759   -0.096902
     40          1           0       -2.973934    0.591160   -1.541352
     41          1           0       -2.095259   -0.781415   -2.203276
 ---------------------------------------------------------------------

 SCF Done:  E(RB3LYP) =  -2010.15644762     A.U. after   24 cycles

 Excitation energies and oscillator strengths:

 Excited State   1:      Triplet-A      1.2239 eV 1013.04 nm  f=0.0000  <S**2>=2.000
     114 ->117         0.35992
     115 ->117         0.59156
     115 ->118        -0.12867
     116 ->117        -0.10861
     114 <-117         0.11941
     115 <-117         0.18685
 This state for optimization and/or second-order correction.
 Total Energy, E(TD-HF/TD-DFT) =  -2010.11147094
 Copying the excited state density for this state as the 1-particle RhoCI density.

 Excited State   2:      Triplet-A      2.4098 eV  514.49 nm  f=0.0000  <S**2>=2.000
     116 ->117         0.56187
     116 ->119         0.17610
     116 ->120         0.33366

 Excited State   3:      Triplet-A      2.5369 eV  488.73 nm  f=0.0000  <S**2>=2.000
     103 ->118         0.16522
     104 ->118         0.16752
     111 ->119        -0.11672
     114 ->117         0.22985
     114 ->118         0.27434
     114 ->119         0.25281
     115 ->117        -0.14314
     115 ->118        -0.26296
     115 ->119        -0.19532
     116 ->118        -0.20944
     116 ->120         0.15576

 Excited State   4:      Singlet-A      2.5651 eV  483.34 nm  f=0.0010  <S**2>=0.000
     116 ->117         0.70125

 Excited State   5:      Singlet-A      2.7834 eV  445.44 nm  f=0.0043  <S**2>=0.000
     114 ->117        -0.43603
     114 ->118        -0.10343
     115 ->117         0.46553
     115 ->118         0.22202
     116 ->118         0.15798

 Excited State   6:      Singlet-A      2.8749 eV  431.27 nm  f=0.0054  <S**2>=0.000
     114 ->117         0.11443
     114 ->118        -0.13499
     115 ->117        -0.18276
     116 ->118         0.65352

 The electronic state is 1-A.
 Alpha  occ. eigenvalues -- -101.61854 -19.33299 -19.26135 -19.26051 -19.25498
 Alpha  occ. eigenvalues --  -19.24720 -19.24396 -19.18304 -19.16353 -14.64254
 Alpha  occ. eigenvalues --  -14.60094 -14.46480 -14.37206 -10.35875 -10.34947
 Alpha  occ. eigenvalues --  -10.34234 -10.33781 -10.32161 -10.31494 -10.31372
 Alpha  occ. eigenvalues --  -10.30953 -10.30852 -10.29392 -10.29214 -10.29015
 Alpha  occ. eigenvalues --  -10.27774 -10.26422 -10.26256 -10.26124 -10.25151
 Alpha  occ. eigenvalues --  -10.24396 -10.24086  -9.53294  -7.29760  -7.28706
 Alpha  occ. eigenvalues --   -7.28670  -1.30043  -1.27310  -1.17659  -1.15599
 Alpha  occ. eigenvalues --   -1.14956  -1.12918  -1.07599  -1.05995  -0.99342
 Alpha  occ. eigenvalues --   -0.94914  -0.94419  -0.93921  -0.91476  -0.89382
 Alpha  occ. eigenvalues --   -0.87803  -0.85526  -0.84435  -0.82113  -0.80752
 Alpha  occ. eigenvalues --   -0.78003  -0.75999  -0.72001  -0.70486  -0.70166
 Alpha  occ. eigenvalues --   -0.69860  -0.67941  -0.65792  -0.63804  -0.63356
 Alpha  occ. eigenvalues --   -0.62536  -0.60151  -0.59206  -0.58876  -0.58181
 Alpha  occ. eigenvalues --   -0.58010  -0.57365  -0.56418  -0.56204  -0.55386
 Alpha  occ. eigenvalues --   -0.53363  -0.52079  -0.51895  -0.51509  -0.50403
 Alpha  occ. eigenvalues --   -0.50071  -0.49667  -0.49276  -0.48709  -0.48015
 Alpha  occ. eigenvalues --   -0.47263  -0.46911  -0.46496  -0.46090  -0.45332
 Alpha  occ. eigenvalues --   -0.44729  -0.43546  -0.42857  -0.42464  -0.41995
 Alpha  occ. eigenvalues --   -0.41439  -0.40801  -0.39607  -0.39297  -0.39089
 Alpha  occ. eigenvalues --   -0.38878  -0.38483  -0.38277  -0.37845  -0.37373
 Alpha  occ. eigenvalues --   -0.36389  -0.36316  -0.34863  -0.34460  -0.33838
 Alpha  occ. eigenvalues --   -0.32676  -0.31382  -0.30654  -0.28305  -0.27814
 Alpha  occ. eigenvalues --   -0.27029
 Alpha virt. eigenvalues --   -0.15583  -0.14376  -0.10815  -0.09808  -0.07077
 Alpha virt. eigenvalues --   -0.06694  -0.05354  -0.04736  -0.03733  -0.02868
 Alpha virt. eigenvalues --   -0.01951  -0.01545  -0.01185  -0.01000  -0.00156

 Mulliken charges:
               1
     1  C   -0.233900
     2  C    0.288815
     3  C    0.080378
     4  N   -0.478137
     5  C    0.882522
     6  C   -0.286832
     7  C   -0.826907
     8  C    0.580801
     9  C   -0.151501
    10  C   -0.402739
    11  O   -0.290027
    12  C    0.451360
    13  O   -0.453721
    14  C    0.445227
    15  C    0.515471
    16  C    0.106109
    17  N   -0.157820
    18  O    0.047746
    19  O    0.079122
    20  C   -0.532298
    21  Cl   0.340327
    22  C    0.694540
    23  C   -0.806511
    24  C   -0.557458
    25  N   -0.492082
    26  O    0.464704
    27  N   -0.532588
    28  O    0.091483
    29  C   -0.274375
    30  C    0.478124
    31  O   -0.443439
    32  O   -0.210193
    33  H    0.155403
    34  H    0.171058
    35  H    0.170297
    36  H    0.157574
    37  H    0.161680
    38  H    0.148033
    39  H    0.189960
    40  H    0.210708
    41  H    0.219084
 Sum of Mulliken charges =  -0.00000

 Dipole moment (field-independent basis, Debye):
    X=              8.1251    Y=             -2.4048    Z=             -2.6977  Tot=              8.8925
 Quadrupole moment (field-independent basis, Debye-Ang):
   XX=           -226.6414   YY=           -224.5071   ZZ=           -196.6729
   XY=            -14.3078   XZ=              1.6814   YZ=            -12.1019

 Normal termination of Gaussian 16 at Mon Aug 25 15:00:51 2025.
