 Gaussian 16, Revision C.02,
 Gaussian 16:  ES64L-G16RevC.02  7-Dec-2021

 ----------------------------------------------------------
 # td=(50-50,nstates=3) b3lyp/6-31+g(d,p) geom=connectivity
 ----------------------------------------------------------

 -------------------
 Title Card Required
 -------------------
 Symbolic Z-matrix:
 Charge =  0 Multiplicity = 1

                         Standard orientation:
 ---------------------------------------------------------------------
 Center     Atomic      Atomic             Coordinates (Angstroms)
 Number     Number       Type             X           Y           Z
 ---------------------------------------------------------------------
      1          6           0       -4.227000    3.017168   -1.110729
      2          6           0       -3.359467    2.351692   -0.314249
      3          6           0       -2.283051    3.095645    0.285802
      4          7           0       -1.408626    3.722794    0.728611
      5          6           0       -3.452679    0.912557   -0.063763
      6          6           0       -2.791042    0.042952    0.732909
      7          6           0       -1.657552    0.291269    1.703518
      8          6           0       -1.722119   -0.661774    2.913759
      9          6           0       -0.251191    0.279239    1.018648
     10          6           0        0.017448   -0.793194   -0.001661
     11          6           0       -0.048544   -2.181903    0.082700
     12          8           0       -0.569024   -2.980417    0.846899
     13          8           0        0.714567   -2.731814   -1.057157
     14          7           0        0.953482   -1.690645   -1.964114
     15          7           0        0.991747   -0.466365   -1.068625
     16          6           0        2.388190   -0.143331   -0.685785
     17          6           0        3.044062    0.876917   -1.368266
     18          6           0        4.361084    1.192778   -1.033197
     19          6           0        4.995130    0.467577   -0.023204
     20         17           0        6.647232    0.856611    0.404960
     21          6           0        4.332765   -0.557545    0.658155
     22          6           0        3.013347   -0.862987    0.328779
     23          6           0       -3.423125   -1.310469    0.520266
     24          6           0       -4.482565   -1.052607   -0.529674
     25          8           0       -5.251313   -1.800734   -1.070267
     26          8           0       -4.462826    0.302870   -0.822104
     27          1           0       -5.041194    2.492700   -1.595101
     28          1           0       -4.122613    4.083140   -1.274968
     29          1           0       -1.766175    1.307433    2.095977
     30          1           0       -0.950772   -0.383057    3.638995
     31          1           0       -2.690962   -0.584721    3.419331
     32          1           0       -1.550834   -1.700875    2.621596
     33          1           0       -0.138167    1.248887    0.518200
     34          1           0        0.494623    0.281165    1.830791
     35          1           0        2.543035    1.432166   -2.157781
     36          1           0        4.885408    1.990145   -1.547046
     37          1           0        4.842171   -1.107987    1.440802
     38          1           0        2.481985   -1.646802    0.855890
     39          1           0       -2.721792   -2.088862    0.200084
     40          1           0       -3.903812   -1.701432    1.426050
     41          1           0        0.663036    0.304455   -1.659805
     42          1           0        0.043515   -1.552382   -2.431454
 ---------------------------------------------------------------------

 SCF Done:  E(RB3LYP) =  -1620.77197905     A.U. after   18 cycles

 Excitation energies and oscillator strengths:

 Excited State   1:      Triplet-A      2.2507 eV  550.86 nm  f=0.0000  <S**2>=2.000
      91 -> 98         0.19637
      96 -> 98         0.66042
      97 -> 98         0.11602
      96 <- 98         0.12479
 This state for optimization and/or second-order correction.
 Total Energy, E(TD-HF/TD-DFT) =  -1620.68926640
 Copying the excited state density for this state as the 1-particle RhoCI density.

 Excited State   2:      Triplet-A      2.8548 eV  434.30 nm  f=0.0000  <S**2>=2.000
      96 -> 98        -0.11039
      97 -> 98         0.69262

 Excited State   3:      Singlet-A      2.8625 eV  433.13 nm  f=0.0054  <S**2>=0.000
      97 -> 98         0.70381

 Excited State   4:      Triplet-A      2.9365 eV  422.22 nm  f=0.0000  <S**2>=2.000
      97 -> 99         0.68765

 Excited State   5:      Singlet-A      3.0631 eV  404.77 nm  f=0.0029  <S**2>=0.000
      97 -> 99         0.69990

 Excited State   6:      Singlet-A      3.3749 eV  367.37 nm  f=0.0027  <S**2>=0.000
      97 ->100         0.70383

 The electronic state is 1-A.
 Alpha  occ. eigenvalues -- -101.58350 -19.22397 -19.22356 -19.16127 -19.12870
 Alpha  occ. eigenvalues --  -14.52161 -14.47580 -14.36874 -10.33651 -10.30452
 Alpha  occ. eigenvalues --  -10.29723 -10.28687 -10.28221 -10.27322 -10.26191
 Alpha  occ. eigenvalues --  -10.25767 -10.25055 -10.24947 -10.24787 -10.23814
 Alpha  occ. eigenvalues --  -10.23113 -10.22302 -10.22142 -10.22054 -10.21960
 Alpha  occ. eigenvalues --  -10.18358  -9.49857  -7.26277  -7.25290  -7.25248
 Alpha  occ. eigenvalues --   -1.15855  -1.13198  -1.05145  -1.04584  -1.01788
 Alpha  occ. eigenvalues --   -0.93803  -0.93246  -0.88142  -0.86393  -0.84901
 Alpha  occ. eigenvalues --   -0.83842  -0.81003  -0.80152  -0.78090  -0.74376
 Alpha  occ. eigenvalues --   -0.73804  -0.70271  -0.67856  -0.67157  -0.65628
 Alpha  occ. eigenvalues --   -0.64967  -0.61809  -0.61564  -0.59575  -0.57620
 Alpha  occ. eigenvalues --   -0.56325  -0.55091  -0.53979  -0.52492  -0.51021
 Alpha  occ. eigenvalues --   -0.50517  -0.50496  -0.49171  -0.48296  -0.48057
 Alpha  occ. eigenvalues --   -0.46320  -0.46001  -0.45227  -0.44965  -0.43952
 Alpha  occ. eigenvalues --   -0.43444  -0.43313  -0.42651  -0.42458  -0.41721
 Alpha  occ. eigenvalues --   -0.41391  -0.41026  -0.40601  -0.40105  -0.39851
 Alpha  occ. eigenvalues --   -0.38970  -0.37496  -0.37234  -0.36826  -0.36667
 Alpha  occ. eigenvalues --   -0.36436  -0.35418  -0.34480  -0.34364  -0.31310
 Alpha  occ. eigenvalues --   -0.31246  -0.30854  -0.29219  -0.28926  -0.27002
 Alpha  occ. eigenvalues --   -0.24807  -0.21574
 Alpha virt. eigenvalues --   -0.08856  -0.07401  -0.06613  -0.04629  -0.02495
 Alpha virt. eigenvalues --   -0.01752  -0.01117  -0.00578  -0.00123  -0.00070
 Alpha virt. eigenvalues --    0.00763   0.01062   0.01263   0.01681   0.02348

 Mulliken charges:
               1
     1  C   -0.058626
     2  C    1.619362
     3  C   -1.033068
     4  N   -0.417222
     5  C   -0.323777
     6  C   -0.123786
     7  C    0.248834
     8  C   -0.647122
     9  C   -0.717518
    10  C    0.563920
    11  C    0.029877
    12  O   -0.454325
    13  O   -0.089715
    14  N   -0.183173
    15  N   -0.267773
    16  C   -0.870456
    17  C    0.259108
    18  C   -0.288618
    19  C    0.050636
    20  Cl   0.276813
    21  C   -0.179739
    22  C   -0.052781
    23  C    0.060728
    24  C    0.330050
    25  O   -0.446992
    26  O   -0.306800
    27  H    0.185157
    28  H    0.165609
    29  H    0.148056
    30  H    0.141777
    31  H    0.144010
    32  H    0.206171
    33  H    0.137068
    34  H    0.148990
    35  H    0.127930
    36  H    0.159540
    37  H    0.161663
    38  H    0.165263
    39  H    0.231933
    40  H    0.203283
    41  H    0.360840
    42  H    0.334874
 Sum of Mulliken charges =  -0.00000

 Dipole moment (field-independent basis, Debye):
    X=              3.6472    Y=              4.9927    Z=             -1.8558  Tot=              6.4555
 Quadrupole moment (field-independent basis, Debye-Ang):
   XX=           -170.9197   YY=           -185.8363   ZZ=           -151.7563
   XY=            -12.5495   XZ=             -6.8335   YZ=            -12.9044

 Normal termination of Gaussian 16 at Mon Aug 25 14:51:01 2025.
