 Gaussian 16, Revision C.02,
 Gaussian 16:  ES64L-G16RevC.02  7-Dec-2021

 ----------------------------------------------------------
 # td=(50-50,nstates=3) b3lyp/6-31+g(d,p) geom=connectivity
 ----------------------------------------------------------

 -------------------
 Title Card Required
 -------------------
 Symbolic Z-matrix:
 Charge =  0 Multiplicity = 1

                         Standard orientation:
 ---------------------------------------------------------------------
 Center     Atomic      Atomic             Coordinates (Angstroms)
 Number     Number       Type             X           Y           Z
 ---------------------------------------------------------------------
      1         17           0        3.672420   -1.363110   -0.000123
      2          6           0        3.295091    0.387576    0.000176
      3          6           0        1.825022    0.669363    0.000096
      4          7           0        0.808396   -0.132127    0.000119
      5          6           0       -0.264221    0.746858    0.000018
      6          6           0       -1.643726    0.294809   -0.000001
      7          6           0       -2.790757    1.059993   -0.000056
      8          6           0       -3.975369    0.274034   -0.000069
      9          6           0       -3.712203   -1.074383   -0.000004
     10         16           0       -2.016699   -1.410265    0.000053
     11          7           0        0.076776    2.018889   -0.000004
     12          8           0        1.487282    1.971903   -0.000116
     13          1           0        3.753851    0.832432    0.886138
     14          1           0        3.754016    0.832782   -0.885521
     15          1           0       -2.771094    2.143386   -0.000092
     16          1           0       -4.976996    0.687765   -0.000114
     17          1           0       -4.421202   -1.891323    0.000010
 ---------------------------------------------------------------------

 SCF Done:  E(RB3LYP) =  -1312.83873598     A.U. after   15 cycles

 Excitation energies and oscillator strengths:

 Excited State   1:      Triplet-A      2.7501 eV  450.84 nm  f=0.0000  <S**2>=2.000
      51 -> 52         0.67670
      51 -> 53        -0.13773
 This state for optimization and/or second-order correction.
 Total Energy, E(TD-HF/TD-DFT) =  -1312.73767316
 Copying the excited state density for this state as the 1-particle RhoCI density.

 Excited State   2:      Triplet-A      3.9282 eV  315.63 nm  f=0.0000  <S**2>=2.000
      50 -> 52         0.66270
      50 -> 53        -0.19531

 Excited State   3:      Triplet-A      4.0769 eV  304.11 nm  f=0.0000  <S**2>=2.000
      45 -> 52         0.11207
      47 -> 52        -0.21555
      48 -> 52         0.32749
      51 -> 53         0.51493
      51 -> 58        -0.14843

 Excited State   4:      Singlet-A      4.5225 eV  274.15 nm  f=0.2919  <S**2>=0.000
      51 -> 52         0.68569

 Excited State   5:      Singlet-A      4.9258 eV  251.71 nm  f=0.0354  <S**2>=0.000
      50 -> 52         0.67833
      51 -> 53         0.10402
      51 -> 58        -0.11059

 Excited State   6:      Singlet-A      5.1898 eV  238.90 nm  f=0.0717  <S**2>=0.000
      50 -> 52        -0.10665
      51 -> 53         0.67814

 The electronic state is 1-A.
 Alpha  occ. eigenvalues -- -101.56292 -88.93093 -19.27081 -14.40802 -14.36761
 Alpha  occ. eigenvalues --  -10.32433 -10.29084 -10.28625 -10.24454 -10.23532
 Alpha  occ. eigenvalues --  -10.21538 -10.21279  -9.47810  -7.98975  -7.24285
 Alpha  occ. eigenvalues --   -7.23192  -7.23188  -5.95395  -5.95015  -5.94703
 Alpha  occ. eigenvalues --   -1.18553  -0.96659  -0.91572  -0.89458  -0.86884
 Alpha  occ. eigenvalues --   -0.76234  -0.75533  -0.73603  -0.66240  -0.63116
 Alpha  occ. eigenvalues --   -0.58319  -0.56624  -0.53868  -0.52889  -0.49859
 Alpha  occ. eigenvalues --   -0.47661  -0.46217  -0.44828  -0.42677  -0.41420
 Alpha  occ. eigenvalues --   -0.40662  -0.40346  -0.36383  -0.35960  -0.35595
 Alpha  occ. eigenvalues --   -0.33012  -0.32522  -0.31280  -0.31176  -0.26995
 Alpha  occ. eigenvalues --   -0.24527
 Alpha virt. eigenvalues --   -0.06963  -0.03195  -0.02002  -0.00221   0.00077
 Alpha virt. eigenvalues --    0.01226   0.02078   0.02690   0.03098   0.03705
 Alpha virt. eigenvalues --    0.04199   0.05017   0.05169   0.05252   0.06052

 Mulliken charges:
               1
     1  Cl   0.015849
     2  C   -0.518759
     3  C    0.274289
     4  N   -0.195001
     5  C    0.475312
     6  C   -0.469864
     7  C    0.350250
     8  C   -0.312956
     9  C   -0.117926
    10  S    0.073945
    11  N   -0.578752
    12  O    0.104283
    13  H    0.221266
    14  H    0.221261
    15  H    0.152247
    16  H    0.140626
    17  H    0.163930
 Sum of Mulliken charges =  -0.00000

 Dipole moment (field-independent basis, Debye):
    X=             -0.5096    Y=              0.4260    Z=              0.0004  Tot=              0.6642
 Quadrupole moment (field-independent basis, Debye-Ang):
   XX=            -65.7145   YY=            -87.1594   ZZ=            -84.3393
   XY=              7.0118   XZ=              0.0017   YZ=              0.0004

 Normal termination of Gaussian 16 at Tue Oct  7 12:14:24 2025.
