 Gaussian 16, Revision C.02,
 Gaussian 16:  ES64L-G16RevC.02  7-Dec-2021

 ----------------------------------------------------------
 # td=(50-50,nstates=3) b3lyp/6-31+g(d,p) geom=connectivity
 ----------------------------------------------------------

 -------------------
 Title Card Required
 -------------------
 Symbolic Z-matrix:
 Charge =  0 Multiplicity = 1

                         Standard orientation:
 ---------------------------------------------------------------------
 Center     Atomic      Atomic             Coordinates (Angstroms)
 Number     Number       Type             X           Y           Z
 ---------------------------------------------------------------------
      1          6           0       -5.573087   -2.556033   -0.262224
      2          6           0       -4.252296   -1.776310   -0.289716
      3          6           0       -4.165288   -0.650018    0.763390
      4          6           0       -5.171618    0.488530    0.520627
      5          6           0       -2.718155   -0.137081    0.928921
      6          6           0       -2.044244    0.472485   -0.281470
      7          8           0       -2.603485    0.833115   -1.298465
      8          6           0       -0.541997    0.726771   -0.153097
      9          6           0       -0.007943    2.025294   -0.086744
     10          6           0       -0.824729    3.276440   -0.097075
     11          7           0        1.337952    2.201160    0.014454
     12          8           0        1.847926    3.377443    0.094019
     13          6           0        2.173421    1.079145    0.029917
     14          6           0        3.568361    1.241837    0.126526
     15          6           0        4.386781    0.130545    0.135864
     16          6           0        3.820891   -1.161879    0.046570
     17         17           0        4.886995   -2.549279    0.058657
     18          6           0        2.457243   -1.350835   -0.050939
     19          6           0        1.625059   -0.216941   -0.054856
     20          7           0        0.239329   -0.377915   -0.149150
     21          8           0       -0.268017   -1.558641   -0.247295
     22          1           0       -5.549696   -3.380869   -0.982344
     23          1           0       -5.760724   -2.987485    0.728974
     24          1           0       -6.430095   -1.924354   -0.518542
     25          1           0       -4.097033   -1.350487   -1.287546
     26          1           0       -3.423195   -2.475476   -0.121590
     27          1           0       -4.412272   -1.100914    1.736759
     28          1           0       -5.070280    1.270920    1.282773
     29          1           0       -6.200599    0.119924    0.572321
     30          1           0       -5.022048    0.947679   -0.460433
     31          1           0       -2.685217    0.646022    1.705237
     32          1           0       -2.066384   -0.942374    1.286620
     33          1           0       -1.888218    3.059884   -0.177286
     34          1           0       -0.621424    3.859648    0.807348
     35          1           0       -0.523629    3.905805   -0.941181
     36          1           0        3.961143    2.248903    0.189970
     37          1           0        5.462729    0.240606    0.209201
     38          1           0        2.001250   -2.329451   -0.124807
 ---------------------------------------------------------------------

 SCF Done:  E(RB3LYP) =  -1377.15651088     A.U. after   17 cycles

 Excitation energies and oscillator strengths:

 Excited State   1:      Triplet-A      1.0085 eV 1229.34 nm  f=0.0000  <S**2>=2.000
      81 -> 82         0.73710
      81 -> 85         0.16359
      81 <- 82         0.27580
 This state for optimization and/or second-order correction.
 Total Energy, E(TD-HF/TD-DFT) =  -1377.11944761
 Copying the excited state density for this state as the 1-particle RhoCI density.

 Excited State   2:      Triplet-A      3.0335 eV  408.71 nm  f=0.0000  <S**2>=2.000
      75 -> 82         0.17900
      80 -> 82         0.18643
      81 -> 83         0.63923

 Excited State   3:      Singlet-A      3.0443 eV  407.27 nm  f=0.0933  <S**2>=0.000
      81 -> 82         0.66691
      81 -> 83         0.15394
      81 -> 85        -0.16375

 Excited State   4:      Triplet-A      3.1566 eV  392.77 nm  f=0.0000  <S**2>=2.000
      77 -> 82         0.22886
      78 -> 82         0.16464
      79 -> 82         0.14309
      80 -> 82         0.55743
      80 -> 83         0.10990
      80 -> 84         0.13050
      81 -> 83        -0.17576

 Excited State   5:      Singlet-A      3.4243 eV  362.08 nm  f=0.0011  <S**2>=0.000
      77 -> 82         0.23064
      78 -> 82         0.15434
      80 -> 82         0.58311
      81 -> 83        -0.23918

 Excited State   6:      Singlet-A      3.4805 eV  356.22 nm  f=0.0415  <S**2>=0.000
      77 -> 82         0.15921
      79 -> 82         0.24759
      80 -> 82         0.15275
      81 -> 82        -0.13201
      81 -> 83         0.59266

 The electronic state is 1-A.
 Alpha  occ. eigenvalues -- -101.57933 -19.18026 -19.16139 -19.15993 -14.51473
 Alpha  occ. eigenvalues --  -14.51017 -10.31774 -10.29412 -10.28715 -10.28707
 Alpha  occ. eigenvalues --  -10.28432 -10.28250 -10.24542 -10.24235 -10.24194
 Alpha  occ. eigenvalues --  -10.21463 -10.21065 -10.20305 -10.18027 -10.17729
 Alpha  occ. eigenvalues --  -10.17591  -9.49429  -7.25852  -7.24866  -7.24818
 Alpha  occ. eigenvalues --   -1.14706  -1.13469  -1.07881  -0.95656  -0.92419
 Alpha  occ. eigenvalues --   -0.88048  -0.87055  -0.82788  -0.81737  -0.80883
 Alpha  occ. eigenvalues --   -0.76076  -0.74624  -0.72968  -0.70582  -0.67001
 Alpha  occ. eigenvalues --   -0.64835  -0.64139  -0.62518  -0.60218  -0.57156
 Alpha  occ. eigenvalues --   -0.55677  -0.53355  -0.52780  -0.50751  -0.50253
 Alpha  occ. eigenvalues --   -0.49534  -0.48585  -0.48428  -0.47890  -0.46709
 Alpha  occ. eigenvalues --   -0.46437  -0.44873  -0.44602  -0.43892  -0.43534
 Alpha  occ. eigenvalues --   -0.42622  -0.42303  -0.41842  -0.41378  -0.40405
 Alpha  occ. eigenvalues --   -0.39133  -0.38439  -0.37131  -0.36086  -0.35612
 Alpha  occ. eigenvalues --   -0.34076  -0.33938  -0.32729  -0.32394  -0.30814
 Alpha  occ. eigenvalues --   -0.30450  -0.29052  -0.28832  -0.28566  -0.27582
 Alpha  occ. eigenvalues --   -0.22851
 Alpha virt. eigenvalues --   -0.11356  -0.07340  -0.05064  -0.03446  -0.01105
 Alpha virt. eigenvalues --   -0.00777   0.00152   0.01022   0.01445   0.01769
 Alpha virt. eigenvalues --    0.02337   0.02446   0.03102   0.03967   0.04141

 Mulliken charges:
               1
     1  C   -0.697717
     2  C   -0.104475
     3  C    0.367946
     4  C   -0.586267
     5  C   -0.448618
     6  C   -0.343314
     7  O   -0.340091
     8  C    0.830570
     9  C    0.381401
    10  C   -0.703529
    11  N   -0.462652
    12  O    0.062411
    13  C    0.023991
    14  C   -0.466420
    15  C    0.034822
    16  C    0.335331
    17  Cl   0.277984
    18  C   -0.594993
    19  C    0.112200
    20  N   -0.538295
    21  O    0.104124
    22  H    0.146964
    23  H    0.140858
    24  H    0.143844
    25  H    0.161448
    26  H    0.148261
    27  H    0.119847
    28  H    0.131354
    29  H    0.143051
    30  H    0.174276
    31  H    0.167462
    32  H    0.199926
    33  H    0.162163
    34  H    0.185395
    35  H    0.191905
    36  H    0.185417
    37  H    0.159440
    38  H    0.193981
 Sum of Mulliken charges =  -0.00000

 Dipole moment (field-independent basis, Debye):
    X=              0.6283    Y=              0.4097    Z=              2.2236  Tot=              2.3467
 Quadrupole moment (field-independent basis, Debye-Ang):
   XX=           -125.5940   YY=           -142.6828   ZZ=           -134.7238
   XY=             -2.9891   XZ=             -5.7995   YZ=              0.4490

 Normal termination of Gaussian 16 at Tue Oct  7 12:33:04 2025.
