 Gaussian 16, Revision C.02,
 Gaussian 16:  ES64L-G16RevC.02  7-Dec-2021

 ----------------------------------------------------------
 # td=(50-50,nstates=3) b3lyp/6-31+g(d,p) geom=connectivity
 ----------------------------------------------------------

 -------------------
 Title Card Required
 -------------------
 Symbolic Z-matrix:
 Charge =  0 Multiplicity = 1

                         Standard orientation:
 ---------------------------------------------------------------------
 Center     Atomic      Atomic             Coordinates (Angstroms)
 Number     Number       Type             X           Y           Z
 ---------------------------------------------------------------------
      1          6           0       -4.237144    0.847981    2.497766
      2          7           0       -3.648967    0.571497    1.192845
      3          6           0       -2.976550    1.679818    0.506551
      4          6           0       -1.896162    1.171150   -0.467591
      5          6           0       -1.283714    2.302964   -1.230804
      6          7           0       -0.009511    2.605864   -1.289964
      7          8           0        0.459400    3.639943   -1.902123
      8          6           0        1.014870    1.782614   -0.657647
      9          6           0        1.789315    2.357426    0.348177
     10          6           0        2.807762    1.604057    0.920017
     11          6           0        3.059142    0.296754    0.486531
     12         35           0        4.461168   -0.669249    1.313013
     13          6           0        2.288850   -0.252498   -0.543582
     14         35           0        2.589839   -2.005302   -1.191175
     15          6           0        1.259404    0.496021   -1.121555
     16          7           0       -4.300180   -0.246782    0.327852
     17          6           0       -5.249115   -1.022086    0.710550
     18          6           0       -5.859985   -1.961865   -0.305451
     19          6           0       -7.320972   -1.823779   -0.383881
     20          7           0       -8.476158   -1.711621   -0.425528
     21          1           0       -4.278554   -0.066898    3.097728
     22          1           0       -3.605182    1.564112    3.024281
     23          1           0       -5.256967    1.259186    2.416161
     24          1           0       -3.704265    2.309820   -0.029540
     25          1           0       -2.507916    2.299926    1.275192
     26          1           0       -1.149074    0.607704    0.095393
     27          1           0       -2.374871    0.469822   -1.162177
     28          1           0       -1.911929    2.996689   -1.781731
     29          1           0        1.603305    3.379351    0.657608
     30          1           0        3.419125    2.027047    1.709137
     31          1           0        0.669977    0.078681   -1.929209
     32          1           0       -5.633716   -1.071466    1.730068
     33          1           0       -5.423580   -1.760345   -1.288684
     34          1           0       -5.637283   -3.007952   -0.052481
 ---------------------------------------------------------------------

 SCF Done:  E(RB3LYP) =  -5941.40539346     A.U. after   17 cycles

 Excitation energies and oscillator strengths:

 Excited State   1:      Triplet-A      2.0761 eV  597.19 nm  f=0.0000  <S**2>=2.000
      98 ->100         0.16976
      98 ->103         0.12622
      99 ->100         0.55048
      99 ->103         0.39341
      99 <-100         0.12840
      99 <-103         0.11840
 This state for optimization and/or second-order correction.
 Total Energy, E(TD-HF/TD-DFT) =  -5941.32909681
 Copying the excited state density for this state as the 1-particle RhoCI density.

 Excited State   2:      Triplet-A      3.3517 eV  369.91 nm  f=0.0000  <S**2>=2.000
      95 ->100         0.12866
      95 ->101        -0.20500
      96 ->101        -0.17815
      96 ->103         0.14367
      97 ->100         0.54324
      97 ->101         0.13148

 Excited State   3:      Triplet-A      3.3996 eV  364.70 nm  f=0.0000  <S**2>=2.000
      98 ->103         0.10613
      98 ->104        -0.59447
      98 ->105         0.11095
      99 ->104         0.25943

 Excited State   4:      Singlet-A      3.9136 eV  316.81 nm  f=0.0703  <S**2>=0.000
      96 ->100        -0.13227
      97 ->100        -0.33874
      97 ->103        -0.12763
      99 ->100         0.54613
      99 ->103        -0.15094

 Excited State   5:      Singlet-A      3.9727 eV  312.09 nm  f=0.0061  <S**2>=0.000
      96 ->100         0.16137
      97 ->100         0.47432
      97 ->103         0.19846
      98 ->100         0.15029
      99 ->100         0.34389
      99 ->101        -0.11319
      99 ->103        -0.16226

 Excited State   6:      Singlet-A      4.1325 eV  300.03 nm  f=0.0038  <S**2>=0.000
      98 ->101         0.11265
      99 ->101         0.68225

 The electronic state is 1-A.
 Alpha  occ. eigenvalues -- -482.95522-482.95384 -61.91417 -61.91260 -56.42947
 Alpha  occ. eigenvalues --  -56.42826 -56.42547 -56.42512 -56.42432 -56.42402
 Alpha  occ. eigenvalues --  -19.13877 -14.49513 -14.40849 -14.39733 -14.35038
 Alpha  occ. eigenvalues --  -10.28636 -10.28445 -10.27132 -10.25544 -10.25309
 Alpha  occ. eigenvalues --  -10.25179 -10.25100 -10.24444 -10.24434 -10.24310
 Alpha  occ. eigenvalues --  -10.23935 -10.23596 -10.22435  -8.61712  -8.61613
 Alpha  occ. eigenvalues --   -6.56916  -6.56825  -6.55608  -6.55544  -6.55522
 Alpha  occ. eigenvalues --   -6.55455  -2.68457  -2.68368  -2.68091  -2.68042
 Alpha  occ. eigenvalues --   -2.68003  -2.67953  -2.66997  -2.66997  -2.66911
 Alpha  occ. eigenvalues --   -2.66911  -1.11561  -1.04089  -0.92498  -0.91897
 Alpha  occ. eigenvalues --   -0.89003  -0.88001  -0.84202  -0.83304  -0.80179
 Alpha  occ. eigenvalues --   -0.78843  -0.77161  -0.75655  -0.72258  -0.68030
 Alpha  occ. eigenvalues --   -0.66166  -0.65106  -0.59401  -0.58558  -0.55804
 Alpha  occ. eigenvalues --   -0.54468  -0.52990  -0.52834  -0.51347  -0.51248
 Alpha  occ. eigenvalues --   -0.49809  -0.48935  -0.47574  -0.47172  -0.45874
 Alpha  occ. eigenvalues --   -0.45589  -0.44897  -0.44310  -0.43134  -0.42821
 Alpha  occ. eigenvalues --   -0.41329  -0.40800  -0.39714  -0.39198  -0.38877
 Alpha  occ. eigenvalues --   -0.37782  -0.36828  -0.34783  -0.34337  -0.34109
 Alpha  occ. eigenvalues --   -0.33908  -0.32786  -0.30390  -0.29738  -0.28394
 Alpha  occ. eigenvalues --   -0.27664  -0.25424  -0.24602  -0.23358
 Alpha virt. eigenvalues --   -0.06704  -0.05509  -0.04931  -0.03709  -0.03356
 Alpha virt. eigenvalues --   -0.01521  -0.00617  -0.00378  -0.00179   0.00656
 Alpha virt. eigenvalues --    0.01041   0.01251   0.01707   0.01818   0.02507

 Mulliken charges:
               1
     1  C   -0.252196
     2  N    0.166336
     3  C   -0.480250
     4  C    0.036144
     5  C   -0.184947
     6  N   -0.211421
     7  O   -0.122387
     8  C   -0.984152
     9  C    0.664229
    10  C   -0.194315
    11  C   -0.249251
    12  Br   0.042120
    13  C   -0.386627
    14  Br   0.084140
    15  C    0.615824
    16  N   -0.171822
    17  C   -0.045502
    18  C   -0.351336
    19  C    0.279701
    20  N   -0.508759
    21  H    0.150497
    22  H    0.149810
    23  H    0.158325
    24  H    0.147156
    25  H    0.135081
    26  H    0.160588
    27  H    0.191863
    28  H    0.162596
    29  H    0.157001
    30  H    0.157424
    31  H    0.154884
    32  H    0.128949
    33  H    0.203379
    34  H    0.196916
 Sum of Mulliken charges =  -0.00000

 Dipole moment (field-independent basis, Debye):
    X=              1.3427    Y=             -0.9494    Z=              4.2515  Tot=              4.5585
 Quadrupole moment (field-independent basis, Debye-Ang):
   XX=           -196.3462   YY=           -151.4971   ZZ=           -141.4654
   XY=             -9.5403   XZ=             -5.6322   YZ=             14.4032

 Normal termination of Gaussian 16 at Mon Aug 25 14:48:52 2025.
