 Gaussian 16, Revision C.02,
 Gaussian 16:  ES64L-G16RevC.02  7-Dec-2021

 ----------------------------------------------------------
 # td=(50-50,nstates=3) b3lyp/6-31+g(d,p) geom=connectivity
 ----------------------------------------------------------

 -------------------
 Title Card Required
 -------------------
 Symbolic Z-matrix:
 Charge =  0 Multiplicity = 1

                         Standard orientation:
 ---------------------------------------------------------------------
 Center     Atomic      Atomic             Coordinates (Angstroms)
 Number     Number       Type             X           Y           Z
 ---------------------------------------------------------------------
      1          6           0        7.286700    0.370767    0.001341
      2          6           0        6.059474   -0.547767    0.000413
      3          6           0        4.730324    0.219345    0.000532
      4          6           0        3.502308   -0.700688   -0.000389
      5          6           0        2.188689    0.084377   -0.000254
      6          6           0        0.960830   -0.800508   -0.001177
      7          8           0        1.037967   -2.016896   -0.002368
      8          6           0       -0.416029   -0.160065   -0.000496
      9          6           0       -1.564833   -0.926079   -0.000108
     10          7           0       -1.493269   -2.413877   -0.000124
     11          8           0       -1.517347   -2.955419    1.095742
     12          8           0       -1.519604   -2.955481   -1.095899
     13          6           0       -2.906039   -0.392974    0.000478
     14         17           0       -4.268649   -1.473026    0.001277
     15          6           0       -3.124145    0.960005    0.000507
     16          6           0       -1.973313    1.771640    0.000017
     17          6           0       -0.640125    1.266666   -0.000411
     18          7           0        0.239990    2.259527   -0.000760
     19          8           0       -0.489749    3.418420   -0.000582
     20          7           0       -1.894182    3.113680   -0.000098
     21          8           0       -2.713184    4.022373    0.000132
     22          1           0        8.217141   -0.206962    0.001229
     23          1           0        7.297584    1.019123   -0.882874
     24          1           0        7.297093    1.017991    0.886391
     25          1           0        6.095065   -1.207668    0.877972
     26          1           0        6.095554   -1.206547   -0.877969
     27          1           0        4.695303    0.880496   -0.877701
     28          1           0        4.694822    0.879385    0.879582
     29          1           0        3.529550   -1.361698    0.873956
     30          1           0        3.530028   -1.360591   -0.875550
     31          1           0        2.129694    0.756924   -0.867009
     32          1           0        2.129218    0.755865    0.867294
     33          1           0       -4.119511    1.387525    0.000928
 ---------------------------------------------------------------------

 SCF Done:  E(RB3LYP) =  -1464.85817071     A.U. after   19 cycles

 Excitation energies and oscillator strengths:

 Excited State   1:      Triplet-A      1.1867 eV 1044.77 nm  f=0.0000  <S**2>=2.000
      81 -> 82         0.70754
      81 -> 84        -0.18517
      81 <- 82         0.21926
 This state for optimization and/or second-order correction.
 Total Energy, E(TD-HF/TD-DFT) =  -1464.81455977
 Copying the excited state density for this state as the 1-particle RhoCI density.

 Excited State   2:      Triplet-A      2.6362 eV  470.31 nm  f=0.0000  <S**2>=2.000
      80 -> 82         0.65392
      80 -> 84         0.23694
      80 -> 88        -0.10003

 Excited State   3:      Singlet-A      2.9289 eV  423.31 nm  f=0.0000  <S**2>=0.000
      80 -> 82         0.68651
      80 -> 84         0.15040

 Excited State   4:      Triplet-A      2.9377 eV  422.04 nm  f=0.0000  <S**2>=2.000
      70 -> 82        -0.23751
      76 -> 82        -0.29127
      78 -> 82        -0.14870
      79 -> 82         0.39181
      81 -> 84         0.38577

 Excited State   5:      Singlet-A      2.9447 eV  421.04 nm  f=0.1260  <S**2>=0.000
      81 -> 82         0.69728
      81 -> 84         0.10220

 Excited State   6:      Singlet-A      3.7585 eV  329.87 nm  f=0.0000  <S**2>=0.000
      79 -> 83         0.20722
      81 -> 83         0.66749

 The electronic state is 1-A.
 Alpha  occ. eigenvalues -- -101.60264 -19.32248 -19.23261 -19.22506 -19.22505
 Alpha  occ. eigenvalues --  -19.18300 -14.61135 -14.59111 -14.45117 -10.32781
 Alpha  occ. eigenvalues --  -10.32428 -10.32292 -10.30994 -10.30592 -10.28498
 Alpha  occ. eigenvalues --  -10.28260 -10.21761 -10.19728 -10.19266 -10.18994
 Alpha  occ. eigenvalues --  -10.18170  -9.51717  -7.28185  -7.27129  -7.27089
 Alpha  occ. eigenvalues --   -1.26661  -1.26462  -1.16371  -1.09668  -1.08503
 Alpha  occ. eigenvalues --   -0.97712  -0.93462  -0.92866  -0.88177  -0.83119
 Alpha  occ. eigenvalues --   -0.82346  -0.79558  -0.77551  -0.72316  -0.70960
 Alpha  occ. eigenvalues --   -0.68308  -0.67615  -0.63295  -0.60017  -0.59841
 Alpha  occ. eigenvalues --   -0.59026  -0.58680  -0.58212  -0.56039  -0.55301
 Alpha  occ. eigenvalues --   -0.54540  -0.53635  -0.50947  -0.50111  -0.50004
 Alpha  occ. eigenvalues --   -0.48278  -0.47472  -0.46229  -0.45989  -0.45638
 Alpha  occ. eigenvalues --   -0.45565  -0.42389  -0.42364  -0.42211  -0.40423
 Alpha  occ. eigenvalues --   -0.39417  -0.38714  -0.37198  -0.36375  -0.35826
 Alpha  occ. eigenvalues --   -0.35252  -0.34386  -0.34228  -0.33951  -0.33881
 Alpha  occ. eigenvalues --   -0.33529  -0.33416  -0.33254  -0.31468  -0.29365
 Alpha  occ. eigenvalues --   -0.26854
 Alpha virt. eigenvalues --   -0.15059  -0.10439  -0.08421  -0.05625  -0.03259
 Alpha virt. eigenvalues --   -0.01604  -0.01197   0.00213   0.00372   0.01353
 Alpha virt. eigenvalues --    0.01985   0.02307   0.02328   0.02596   0.03741

 Mulliken charges:
               1
     1  C   -0.727847
     2  C   -0.137771
     3  C   -0.269285
     4  C   -0.579626
     5  C    0.244511
     6  C    0.587846
     7  O   -0.340527
     8  C    1.447703
     9  C    0.251454
    10  N   -0.378047
    11  O    0.047145
    12  O    0.047160
    13  C   -0.293880
    14  Cl   0.345225
    15  C   -0.032509
    16  C   -1.176386
    17  C   -0.274755
    18  N   -0.572908
    19  O    0.415240
    20  N   -0.519459
    21  O    0.050118
    22  H    0.146132
    23  H    0.145368
    24  H    0.145367
    25  H    0.140159
    26  H    0.140158
    27  H    0.135424
    28  H    0.135421
    29  H    0.158798
    30  H    0.158815
    31  H    0.185320
    32  H    0.185249
    33  H    0.190387
 Sum of Mulliken charges =  -0.00000

 Dipole moment (field-independent basis, Debye):
    X=              0.0107    Y=              2.5552    Z=              0.0025  Tot=              2.5552
 Quadrupole moment (field-independent basis, Debye-Ang):
   XX=           -118.7774   YY=           -159.1959   ZZ=           -129.7459
   XY=             -0.1360   XZ=             -0.0030   YZ=             -0.0067

 Normal termination of Gaussian 16 at Tue Oct  7 12:25:35 2025.
