 Gaussian 16, Revision C.02,
 Gaussian 16:  ES64L-G16RevC.02  7-Dec-2021

 ----------------------------------------------------------
 # td=(50-50,nstates=3) b3lyp/6-31+g(d,p) geom=connectivity
 ----------------------------------------------------------

 -------------------
 Title Card Required
 -------------------
 Symbolic Z-matrix:
 Charge =  0 Multiplicity = 1

                         Standard orientation:
 ---------------------------------------------------------------------
 Center     Atomic      Atomic             Coordinates (Angstroms)
 Number     Number       Type             X           Y           Z
 ---------------------------------------------------------------------
      1         17           0       -4.621670   -0.523228    0.140645
      2          6           0       -3.006291   -1.207022   -0.038644
      3          6           0       -2.825912   -2.578890    0.127592
      4          6           0       -1.537709   -3.095889   -0.022483
      5          6           0       -0.461768   -2.259256   -0.326180
      6          6           0       -0.649586   -0.879097   -0.485156
      7          6           0        0.516160    0.035213   -0.918439
      8          6           0        1.883905   -0.486213   -0.501360
      9          6           0        2.768224   -0.952774   -1.483270
     10          6           0        3.996333   -1.525380   -1.149721
     11          6           0        4.354570   -1.651040    0.195693
     12          6           0        3.491916   -1.181921    1.182038
     13          6           0        2.263037   -0.569296    0.860019
     14          6           0        1.458301   -0.034047    1.958418
     15          6           0        0.622028    1.029605    1.939699
     16          6           0        0.309897    1.913410    0.816330
     17          6           0       -0.002588    3.258221    1.104128
     18          6           0       -0.239853    4.184938    0.093277
     19          6           0       -0.180074    3.777955   -1.242696
     20          6           0        0.093797    2.442999   -1.542944
     21          6           0        0.324168    1.495765   -0.536259
     22          6           0       -1.943113   -0.358022   -0.342444
     23          1           0       -3.667041   -3.220032    0.366555
     24          1           0       -1.372719   -4.162387    0.101181
     25          1           0        0.530009   -2.685024   -0.434369
     26          1           0        0.506308    0.008266   -2.015712
     27          1           0        2.476523   -0.884684   -2.528529
     28          1           0        4.657818   -1.886457   -1.931700
     29          1           0        5.299896   -2.108333    0.472676
     30          1           0        3.774481   -1.264721    2.228457
     31          1           0        1.639094   -0.495664    2.927602
     32          1           0        0.199141    1.334861    2.895221
     33          1           0       -0.035467    3.574714    2.143522
     34          1           0       -0.468503    5.216522    0.344131
     35          1           0       -0.364645    4.488053   -2.043347
     36          1           0        0.107482    2.120669   -2.581288
     37          1           0       -2.126639    0.703524   -0.460950
 ---------------------------------------------------------------------

 SCF Done:  E(RB3LYP) =  -1269.51835624     A.U. after   16 cycles

 Excitation energies and oscillator strengths:

 Excited State   1:      Triplet-A      2.6573 eV  466.58 nm  f=0.0000  <S**2>=2.000
      74 -> 84         0.11394
      79 -> 80         0.66557
 This state for optimization and/or second-order correction.
 Total Energy, E(TD-HF/TD-DFT) =  -1269.42070143
 Copying the excited state density for this state as the 1-particle RhoCI density.

 Excited State   2:      Triplet-A      3.5546 eV  348.80 nm  f=0.0000  <S**2>=2.000
      74 -> 80         0.33540
      75 -> 81        -0.18830
      75 -> 83        -0.10159
      77 -> 80        -0.23810
      77 -> 82        -0.12151
      77 -> 85        -0.16871
      78 -> 80        -0.16527
      79 -> 84         0.36330

 Excited State   3:      Triplet-A      3.6202 eV  342.47 nm  f=0.0000  <S**2>=2.000
      75 -> 81         0.10806
      76 -> 81        -0.15970
      76 -> 82         0.27982
      76 -> 83         0.17249
      76 -> 85        -0.11384
      77 -> 83         0.10539
      78 -> 80        -0.11470
      78 -> 81         0.15657
      78 -> 82         0.25864
      78 -> 83        -0.35346
      78 -> 85        -0.15812

 Excited State   4:      Singlet-A      4.0583 eV  305.50 nm  f=0.3055  <S**2>=0.000
      79 -> 80         0.69582

 Excited State   5:      Singlet-A      4.3822 eV  282.92 nm  f=0.0025  <S**2>=0.000
      76 -> 80        -0.10987
      77 -> 80         0.44149
      78 -> 80         0.25586
      79 -> 81        -0.44013
      79 -> 83        -0.10238
      79 -> 84         0.10362

 Excited State   6:      Singlet-A      4.4660 eV  277.62 nm  f=0.0063  <S**2>=0.000
      77 -> 80        -0.23744
      78 -> 80         0.64035
      79 -> 81         0.13879

 The electronic state is 1-A.
 Alpha  occ. eigenvalues -- -101.55021 -10.25541 -10.21904 -10.21497 -10.21293
 Alpha  occ. eigenvalues --  -10.21242 -10.21172 -10.21119 -10.20524 -10.20469
 Alpha  occ. eigenvalues --  -10.20413 -10.20372 -10.20344 -10.20336 -10.20289
 Alpha  occ. eigenvalues --  -10.20266 -10.20250 -10.20226 -10.20193 -10.20165
 Alpha  occ. eigenvalues --  -10.20153 -10.19731  -9.46524  -7.22924  -7.21963
 Alpha  occ. eigenvalues --   -7.21935  -0.89550  -0.88406  -0.86552  -0.84116
 Alpha  occ. eigenvalues --   -0.81168  -0.80495  -0.76874  -0.75904  -0.75503
 Alpha  occ. eigenvalues --   -0.73615  -0.72813  -0.68567  -0.64568  -0.62130
 Alpha  occ. eigenvalues --   -0.61817  -0.60984  -0.60085  -0.57314  -0.56161
 Alpha  occ. eigenvalues --   -0.52521  -0.51355  -0.50127  -0.49289  -0.47732
 Alpha  occ. eigenvalues --   -0.47565  -0.46143  -0.45907  -0.44605  -0.44351
 Alpha  occ. eigenvalues --   -0.43444  -0.43103  -0.42820  -0.42039  -0.40553
 Alpha  occ. eigenvalues --   -0.39269  -0.38891  -0.38513  -0.37624  -0.37108
 Alpha  occ. eigenvalues --   -0.36452  -0.35371  -0.35104  -0.34755  -0.33722
 Alpha  occ. eigenvalues --   -0.33008  -0.31395  -0.31249  -0.27157  -0.26620
 Alpha  occ. eigenvalues --   -0.25776  -0.25261  -0.24555  -0.22380
 Alpha virt. eigenvalues --   -0.05980  -0.03031  -0.02203  -0.02044  -0.01690
 Alpha virt. eigenvalues --   -0.00866  -0.00108   0.00676   0.00715   0.01035
 Alpha virt. eigenvalues --    0.01778   0.02532   0.02591   0.03169   0.04059

 Mulliken charges:
               1
     1  Cl   0.229920
     2  C    0.340660
     3  C   -0.372594
     4  C   -0.122962
     5  C   -0.283947
     6  C    0.714235
     7  C   -0.631684
     8  C    0.139978
     9  C    0.095263
    10  C   -0.338386
    11  C   -0.000684
    12  C   -0.268943
    13  C    0.005315
    14  C   -0.156550
    15  C   -0.222074
    16  C    0.160105
    17  C   -0.348154
    18  C    0.000956
    19  C   -0.300809
    20  C    0.086452
    21  C    0.114779
    22  C   -0.727024
    23  H    0.141124
    24  H    0.130617
    25  H    0.130594
    26  H    0.124757
    27  H    0.109772
    28  H    0.127699
    29  H    0.126578
    30  H    0.125716
    31  H    0.117184
    32  H    0.117614
    33  H    0.125772
    34  H    0.126984
    35  H    0.127613
    36  H    0.109217
    37  H    0.144906
 Sum of Mulliken charges =  -0.00000

 Dipole moment (field-independent basis, Debye):
    X=              2.2462    Y=             -0.2551    Z=             -0.1502  Tot=              2.2656
 Quadrupole moment (field-independent basis, Debye-Ang):
   XX=           -142.4147   YY=           -125.3149   ZZ=           -127.4932
   XY=             -5.5505   XZ=             -0.3358   YZ=             -0.6718

 Normal termination of Gaussian 16 at Tue Oct  7 12:41:56 2025.
