 Gaussian 16, Revision C.02,
 Gaussian 16:  ES64L-G16RevC.02  7-Dec-2021

 ----------------------------------------------------------
 # td=(50-50,nstates=3) b3lyp/6-31+g(d,p) geom=connectivity
 ----------------------------------------------------------

 -------------------
 Title Card Required
 -------------------
 Symbolic Z-matrix:
 Charge =  0 Multiplicity = 1

                         Standard orientation:
 ---------------------------------------------------------------------
 Center     Atomic      Atomic             Coordinates (Angstroms)
 Number     Number       Type             X           Y           Z
 ---------------------------------------------------------------------
      1          6           0        5.256005    3.912347   -0.138470
      2          6           0        5.181785    2.403132   -0.095102
      3          6           0        6.327987    1.624874    0.094958
      4          6           0        6.329207    0.216610    0.145808
      5          6           0        7.642336   -0.506908    0.362504
      6          6           0        5.082477   -0.405133   -0.009544
      7          6           0        3.915603    0.356161   -0.206525
      8          6           0        3.951910    1.740000   -0.246025
      9          6           0        2.730377   -0.573645   -0.355125
     10          6           0        1.638295   -0.340786    0.659207
     11          6           0        0.368839   -0.130130    0.355880
     12          6           0       -0.853027    0.083584    0.074348
     13          6           0       -2.094527    0.299919   -0.213048
     14          6           0       -3.314783    0.517538   -0.498155
     15          6           0       -4.583754    0.740705   -0.796039
     16          6           0       -5.644313    0.994078    0.269830
     17          6           0       -6.235109    2.336663    0.101331
     18          7           0       -6.723287    3.384516   -0.011871
     19          6           0       -6.737658   -0.065477    0.281904
     20          7           0       -7.935017    0.182105    0.830479
     21         16           0       -6.465741   -1.625653   -0.299798
     22          8           0       -7.788413   -2.371803   -0.030664
     23          6           0        3.380270   -1.969013   -0.192322
     24          8           0        2.807950   -3.045345   -0.231996
     25          7           0        4.738521   -1.782915   -0.005710
     26          6           0        5.624492   -2.928331    0.145073
     27          1           0        6.282079    4.264282    0.000758
     28          1           0        4.897189    4.302660   -1.098125
     29          1           0        4.638555    4.365579    0.645951
     30          1           0        7.283071    2.131713    0.213185
     31          1           0        7.887143   -1.183392   -0.462256
     32          1           0        8.455944    0.218898    0.438661
     33          1           0        7.645646   -1.095664    1.285457
     34          1           0        3.035269    2.306315   -0.392898
     35          1           0        2.302921   -0.531595   -1.363477
     36          1           0        1.937582   -0.347613    1.707814
     37          1           0       -4.919498    0.769433   -1.830945
     38          1           0       -5.157567    0.987979    1.255027
     39          1           0       -8.600689   -0.590914    0.786297
     40          1           0       -8.251422    1.119248    1.034735
     41          1           0        4.996834   -3.819406    0.102169
     42          1           0        6.358697   -2.970049   -0.663883
     43          1           0        6.143823   -2.902905    1.106369
 ---------------------------------------------------------------------

 SCF Done:  E(RB3LYP) =  -1485.14001565     A.U. after   19 cycles

 Excitation energies and oscillator strengths:

 Excited State   1:      Triplet-A      1.4893 eV  832.53 nm  f=0.0000  <S**2>=2.000
      89 -> 96         0.13919
      93 -> 96         0.67839
      95 -> 96        -0.13576
      93 <- 96         0.19981
 This state for optimization and/or second-order correction.
 Total Energy, E(TD-HF/TD-DFT) =  -1485.08528667
 Copying the excited state density for this state as the 1-particle RhoCI density.

 Excited State   2:      Triplet-A      1.9552 eV  634.12 nm  f=0.0000  <S**2>=2.000
      95 -> 96        -0.11584
      95 -> 97         0.10650
      95 -> 98         0.69674
      95 <- 98         0.15271

 Excited State   3:      Triplet-A      2.3515 eV  527.25 nm  f=0.0000  <S**2>=2.000
      93 -> 96         0.12402
      95 -> 96         0.68140
      95 -> 98         0.11755

 Excited State   4:      Singlet-A      2.3837 eV  520.13 nm  f=0.0261  <S**2>=0.000
      95 -> 96         0.70416

 Excited State   5:      Singlet-A      2.6325 eV  470.98 nm  f=0.0141  <S**2>=0.000
      94 -> 96         0.70321

 Excited State   6:      Singlet-A      2.9102 eV  426.03 nm  f=0.0002  <S**2>=0.000
      90 -> 96        -0.13050
      91 -> 96        -0.22066
      92 -> 96         0.64956

 The electronic state is 1-A.
 Alpha  occ. eigenvalues --  -88.97000 -19.14670 -19.12824 -14.40380 -14.40281
 Alpha  occ. eigenvalues --  -14.37350 -10.31214 -10.30117 -10.29639 -10.26528
 Alpha  occ. eigenvalues --  -10.25248 -10.25179 -10.24925 -10.24817 -10.24700
 Alpha  occ. eigenvalues --  -10.24549 -10.24231 -10.24001 -10.23917 -10.22463
 Alpha  occ. eigenvalues --  -10.21976 -10.21504 -10.20982 -10.20753 -10.20749
 Alpha  occ. eigenvalues --  -10.19887  -8.02026  -5.98522  -5.98051  -5.97876
 Alpha  occ. eigenvalues --   -1.06493  -1.01431  -0.98294  -0.96786  -0.93904
 Alpha  occ. eigenvalues --   -0.87938  -0.86999  -0.85383  -0.83068  -0.80286
 Alpha  occ. eigenvalues --   -0.79955  -0.76984  -0.74760  -0.74350  -0.72750
 Alpha  occ. eigenvalues --   -0.70808  -0.69792  -0.68184  -0.62909  -0.61188
 Alpha  occ. eigenvalues --   -0.60728  -0.60355  -0.58547  -0.57974  -0.56444
 Alpha  occ. eigenvalues --   -0.54821  -0.53825  -0.53135  -0.49503  -0.49035
 Alpha  occ. eigenvalues --   -0.48908  -0.48558  -0.46910  -0.46240  -0.45432
 Alpha  occ. eigenvalues --   -0.44357  -0.44055  -0.43957  -0.43354  -0.43074
 Alpha  occ. eigenvalues --   -0.42809  -0.41380  -0.41307  -0.40523  -0.39844
 Alpha  occ. eigenvalues --   -0.39454  -0.39220  -0.39100  -0.38175  -0.37719
 Alpha  occ. eigenvalues --   -0.37344  -0.37135  -0.36419  -0.36136  -0.35829
 Alpha  occ. eigenvalues --   -0.34501  -0.33690  -0.31204  -0.28303  -0.27345
 Alpha  occ. eigenvalues --   -0.26796  -0.26169  -0.24595  -0.22720  -0.21916
 Alpha virt. eigenvalues --   -0.11189  -0.06993  -0.06411  -0.03784  -0.02926
 Alpha virt. eigenvalues --   -0.01814  -0.01406  -0.01136  -0.00257   0.00012
 Alpha virt. eigenvalues --    0.00299   0.00944   0.01007   0.01321   0.01736

 Mulliken charges:
               1
     1  C   -0.399255
     2  C    0.404470
     3  C   -1.343050
     4  C    0.384026
     5  C   -0.643284
     6  C    0.737361
     7  C   -0.196165
     8  C   -0.011826
     9  C   -0.052081
    10  C   -0.220565
    11  C   -0.614146
    12  C    0.763524
    13  C    0.812603
    14  C   -0.145631
    15  C   -0.904267
    16  C    0.135824
    17  C    0.111561
    18  N   -0.480677
    19  C   -0.377058
    20  N   -0.442578
    21  S    0.847197
    22  O   -0.696043
    23  C   -0.048766
    24  O   -0.475824
    25  N   -0.095719
    26  C   -0.180536
    27  H    0.149371
    28  H    0.165714
    29  H    0.165322
    30  H    0.114853
    31  H    0.162193
    32  H    0.152328
    33  H    0.162578
    34  H    0.129258
    35  H    0.182363
    36  H    0.160264
    37  H    0.187312
    38  H    0.221425
    39  H    0.356519
    40  H    0.324008
    41  H    0.191982
    42  H    0.153757
    43  H    0.151662
 Sum of Mulliken charges =  -0.00000

 Dipole moment (field-independent basis, Debye):
    X=              8.1839    Y=              3.4905    Z=              1.5446  Tot=              9.0302
 Quadrupole moment (field-independent basis, Debye-Ang):
   XX=           -150.9389   YY=           -185.3811   ZZ=           -155.9071
   XY=            -14.4724   XZ=             -6.2597   YZ=              0.0645

 Normal termination of Gaussian 16 at Mon Aug 25 14:58:56 2025.
