 Gaussian 16, Revision C.02,
 Gaussian 16:  ES64L-G16RevC.02  7-Dec-2021

 ----------------------------------------------------------
 # td=(50-50,nstates=3) b3lyp/6-31+g(d,p) geom=connectivity
 ----------------------------------------------------------

 -------------------
 Title Card Required
 -------------------
 Symbolic Z-matrix:
 Charge =  0 Multiplicity = 1

                         Standard orientation:
 ---------------------------------------------------------------------
 Center     Atomic      Atomic             Coordinates (Angstroms)
 Number     Number       Type             X           Y           Z
 ---------------------------------------------------------------------
      1          6           0        2.108770    2.881480   -0.649582
      2          6           0        0.804867    2.440513   -0.064951
      3          6           0        0.285488    1.204995    0.197149
      4          6           0       -1.179969    1.215663    0.314984
      5          6           0       -1.989023    0.177656   -0.004112
      6          6           0       -3.522862    0.241417    0.046528
      7          6           0       -4.015212    1.571596    0.650660
      8          6           0       -4.105928    0.116598   -1.383802
      9          6           0       -4.060787   -0.912197    0.930316
     10          6           0       -1.319887   -1.044909   -0.495973
     11          8           0       -1.914913   -2.000371   -0.991851
     12          6           0        0.166101   -1.140913   -0.284538
     13          8           0        0.576447   -2.424279   -0.492199
     14          6           0        0.951669   -0.121874    0.181946
     15          6           0        2.301664   -0.421814    0.910005
     16          6           0        2.933048    0.805760    1.603398
     17          6           0        2.000604   -1.437936    2.050783
     18          6           0        3.419840   -1.066350    0.013168
     19          6           0        3.709323   -0.380582   -1.247660
     20          7           0        3.952026    0.152772   -2.250401
     21          1           0        1.893709    3.538126   -1.502529
     22          1           0        2.685838    3.490192    0.059914
     23          1           0        2.730903    2.068215   -1.017213
     24          1           0        0.096682    3.260453    0.055426
     25          1           0       -1.613504    2.176617    0.571622
     26          1           0       -5.108529    1.558497    0.707431
     27          1           0       -3.633316    1.727926    1.666242
     28          1           0       -3.732739    2.434668    0.037225
     29          1           0       -5.200255    0.171136   -1.342882
     30          1           0       -3.823075   -0.830515   -1.845547
     31          1           0       -3.751905    0.935590   -2.020562
     32          1           0       -3.677043   -0.830887    1.954090
     33          1           0       -5.154806   -0.862368    0.977411
     34          1           0       -3.778431   -1.886523    0.527992
     35          1           0        1.529004   -2.458489   -0.625903
     36          1           0        3.708096    0.457269    2.294308
     37          1           0        3.406349    1.495742    0.907383
     38          1           0        2.191594    1.356250    2.186212
     39          1           0        2.930133   -1.722321    2.557644
     40          1           0        1.509715   -2.346118    1.696963
     41          1           0        1.345734   -0.970295    2.791441
     42          1           0        4.347498   -1.091033    0.598125
     43          1           0        3.215672   -2.118963   -0.219506
 ---------------------------------------------------------------------

 SCF Done:  E(RB3LYP) =  -866.851016639     A.U. after   17 cycles

 Excitation energies and oscillator strengths:

 Excited State   1:      Triplet-A      1.8797 eV  659.58 nm  f=0.0000  <S**2>=2.000
      73 -> 75        -0.10048
      74 -> 75         0.69419
      74 <- 75         0.14201
 This state for optimization and/or second-order correction.
 Total Energy, E(TD-HF/TD-DFT) =  -866.781937458
 Copying the excited state density for this state as the 1-particle RhoCI density.

 Excited State   2:      Triplet-A      2.5802 eV  480.53 nm  f=0.0000  <S**2>=2.000
      73 -> 75         0.67881

 Excited State   3:      Triplet-A      2.8069 eV  441.72 nm  f=0.0000  <S**2>=2.000
      72 -> 75         0.67404
      74 -> 77         0.14461

 Excited State   4:      Singlet-A      3.0297 eV  409.23 nm  f=0.0054  <S**2>=0.000
      72 -> 75        -0.27283
      73 -> 75         0.57748
      74 -> 75         0.28502

 Excited State   5:      Singlet-A      3.6372 eV  340.88 nm  f=0.0293  <S**2>=0.000
      72 -> 75         0.62856
      73 -> 75         0.17233
      74 -> 75         0.26218

 Excited State   6:      Singlet-A      3.9164 eV  316.58 nm  f=0.2937  <S**2>=0.000
      72 -> 75        -0.14915
      73 -> 75        -0.35402
      74 -> 75         0.57441

 The electronic state is 1-A.
 Alpha  occ. eigenvalues --  -19.20259 -19.13629 -14.35987 -10.27516 -10.26958
 Alpha  occ. eigenvalues --  -10.26465 -10.25788 -10.25302 -10.22879 -10.22678
 Alpha  occ. eigenvalues --  -10.22637 -10.21461 -10.20908 -10.20455 -10.20373
 Alpha  occ. eigenvalues --  -10.20275 -10.20164 -10.17938 -10.16858 -10.16727
 Alpha  occ. eigenvalues --   -1.08663  -1.03017  -0.92936  -0.88110  -0.85434
 Alpha  occ. eigenvalues --   -0.82333  -0.79191  -0.76980  -0.74896  -0.72509
 Alpha  occ. eigenvalues --   -0.71338  -0.68714  -0.67885  -0.66395  -0.62074
 Alpha  occ. eigenvalues --   -0.60987  -0.58037  -0.56476  -0.54688  -0.51269
 Alpha  occ. eigenvalues --   -0.50770  -0.50063  -0.49078  -0.47585  -0.46739
 Alpha  occ. eigenvalues --   -0.45745  -0.44492  -0.43742  -0.43634  -0.43131
 Alpha  occ. eigenvalues --   -0.42786  -0.41404  -0.40978  -0.40734  -0.40234
 Alpha  occ. eigenvalues --   -0.39655  -0.39055  -0.38933  -0.38084  -0.38050
 Alpha  occ. eigenvalues --   -0.37622  -0.37209  -0.36534  -0.36164  -0.35377
 Alpha  occ. eigenvalues --   -0.34630  -0.33968  -0.33762  -0.33367  -0.32830
 Alpha  occ. eigenvalues --   -0.32209  -0.25573  -0.24779  -0.23095
 Alpha virt. eigenvalues --   -0.08985  -0.02583  -0.01161  -0.00807  -0.00109
 Alpha virt. eigenvalues --    0.00224   0.00497   0.00941   0.01207   0.02061
 Alpha virt. eigenvalues --    0.02273   0.02958   0.03451   0.03563   0.04215

 Mulliken charges:
               1
     1  C   -0.728166
     2  C   -0.047325
     3  C   -0.470053
     4  C   -0.417392
     5  C    0.922706
     6  C    0.364670
     7  C   -0.471277
     8  C   -0.537400
     9  C   -0.556916
    10  C    0.137364
    11  O   -0.437382
    12  C    0.188996
    13  O   -0.412368
    14  C   -0.147260
    15  C   -0.114879
    16  C   -0.500584
    17  C   -0.320498
    18  C    0.151730
    19  C    0.025182
    20  N   -0.439296
    21  H    0.164862
    22  H    0.164290
    23  H    0.178102
    24  H    0.132178
    25  H    0.123767
    26  H    0.150200
    27  H    0.149346
    28  H    0.143932
    29  H    0.139614
    30  H    0.186641
    31  H    0.140112
    32  H    0.139648
    33  H    0.140336
    34  H    0.183361
    35  H    0.354657
    36  H    0.148460
    37  H    0.160050
    38  H    0.169795
    39  H    0.146004
    40  H    0.181268
    41  H    0.166913
    42  H    0.196448
    43  H    0.150164
 Sum of Mulliken charges =  -0.00000

 Dipole moment (field-independent basis, Debye):
    X=              2.5935    Y=              2.6255    Z=              4.5498  Tot=              5.8584
 Quadrupole moment (field-independent basis, Debye-Ang):
   XX=           -122.6687   YY=           -122.3982   ZZ=           -132.7870
   XY=            -12.4565   XZ=             10.4805   YZ=             -2.9567

 Normal termination of Gaussian 16 at Mon Aug 25 14:49:22 2025.
