 Gaussian 16, Revision C.02,
 Gaussian 16:  ES64L-G16RevC.02  7-Dec-2021

 ----------------------------------------------------------
 # td=(50-50,nstates=3) b3lyp/6-31+g(d,p) geom=connectivity
 ----------------------------------------------------------

 -------------------
 Title Card Required
 -------------------
 Symbolic Z-matrix:
 Charge =  0 Multiplicity = 1

                         Standard orientation:
 ---------------------------------------------------------------------
 Center     Atomic      Atomic             Coordinates (Angstroms)
 Number     Number       Type             X           Y           Z
 ---------------------------------------------------------------------
      1          6           0        4.356433   -0.941047    0.000032
      2          6           0        3.248549    0.092424   -0.000058
      3          8           0        1.986322   -0.624893    0.000020
      4          6           0        0.885935    0.114776    0.000004
      5          7           0        0.869618    1.431528   -0.000075
      6          8           0       -0.522432    1.710147   -0.000079
      7          6           0       -1.147406    0.518216    0.000069
      8          6           0       -2.643152    0.583364    0.000164
      9         17           0       -3.416849   -1.031480   -0.000088
     10          7           0       -0.347247   -0.499882    0.000106
     11          1           0        5.327361   -0.435190   -0.000033
     12          1           0        4.297844   -1.576978    0.888209
     13          1           0        4.297822   -1.577156   -0.888017
     14          1           0        3.282500    0.734040   -0.887281
     15          1           0        3.282514    0.734213    0.887040
     16          1           0       -2.985689    1.122977    0.886114
     17          1           0       -2.985783    1.123311   -0.885545
 ---------------------------------------------------------------------

 SCF Done:  E(RB3LYP) =  -914.870609585     A.U. after   14 cycles

 Excitation energies and oscillator strengths:

 Excited State   1:      Triplet-A      4.2340 eV  292.83 nm  f=0.0000  <S**2>=2.000
      39 -> 43        -0.20132
      42 -> 43         0.64630
      42 -> 50         0.16421
 This state for optimization and/or second-order correction.
 Total Energy, E(TD-HF/TD-DFT) =  -914.715013438
 Copying the excited state density for this state as the 1-particle RhoCI density.

 Excited State   2:      Triplet-A      5.4311 eV  228.29 nm  f=0.0000  <S**2>=2.000
      36 -> 43        -0.17626
      39 -> 43         0.57747
      40 -> 43         0.27096
      42 -> 43         0.17834

 Excited State   3:      Triplet-A      5.5742 eV  222.42 nm  f=0.0000  <S**2>=2.000
      38 -> 43        -0.29141
      41 -> 43         0.62866

 Excited State   4:      Singlet-A      5.9883 eV  207.04 nm  f=0.0384  <S**2>=0.000
      42 -> 43         0.68613
      42 -> 50        -0.10028

 Excited State   5:      Singlet-A      6.0311 eV  205.57 nm  f=0.0039  <S**2>=0.000
      38 -> 43        -0.21970
      41 -> 43         0.66664

 Excited State   6:      Singlet-A      6.2113 eV  199.61 nm  f=0.0000  <S**2>=0.000
      42 -> 44         0.68854

 The electronic state is 1-A.
 Alpha  occ. eigenvalues -- -101.56094 -19.26549 -19.21676 -14.39984 -14.36440
 Alpha  occ. eigenvalues --  -10.32496 -10.32326 -10.28868 -10.26291 -10.19800
 Alpha  occ. eigenvalues --   -9.47619  -7.24093  -7.22999  -7.22997  -1.18266
 Alpha  occ. eigenvalues --   -1.10869  -0.95787  -0.90244  -0.86516  -0.78979
 Alpha  occ. eigenvalues --   -0.73952  -0.67387  -0.63540  -0.60753  -0.56370
 Alpha  occ. eigenvalues --   -0.53200  -0.50306  -0.49206  -0.47218  -0.47077
 Alpha  occ. eigenvalues --   -0.44397  -0.41826  -0.41263  -0.40682  -0.38054
 Alpha  occ. eigenvalues --   -0.36636  -0.35317  -0.32834  -0.32717  -0.31761
 Alpha  occ. eigenvalues --   -0.31024  -0.27868
 Alpha virt. eigenvalues --   -0.03891  -0.01875  -0.00069   0.00776   0.02747
 Alpha virt. eigenvalues --    0.03369   0.03423   0.03949   0.05122   0.05134
 Alpha virt. eigenvalues --    0.05615   0.06111   0.07200   0.07894   0.07918

 Mulliken charges:
               1
     1  C   -0.595994
     2  C    0.217127
     3  O   -0.370527
     4  C    0.720362
     5  N   -0.555301
     6  O    0.055420
     7  C    0.161984
     8  C   -0.525809
     9  Cl   0.008128
    10  N   -0.356004
    11  H    0.151497
    12  H    0.165745
    13  H    0.165746
    14  H    0.158529
    15  H    0.158529
    16  H    0.220286
    17  H    0.220282
 Sum of Mulliken charges =  -0.00000

 Dipole moment (field-independent basis, Debye):
    X=              1.0681    Y=              1.4344    Z=              0.0003  Tot=              1.7884
 Quadrupole moment (field-independent basis, Debye-Ang):
   XX=            -52.7941   YY=            -72.4308   ZZ=            -64.0046
   XY=             -6.7039   XZ=             -0.0011   YZ=              0.0009

 Normal termination of Gaussian 16 at Tue Oct  7 12:24:14 2025.
