 Gaussian 16, Revision C.02,
 Gaussian 16:  ES64L-G16RevC.02  7-Dec-2021

 ----------------------------------------------------------
 # td=(50-50,nstates=3) b3lyp/6-31+g(d,p) geom=connectivity
 ----------------------------------------------------------

 -------------------
 Title Card Required
 -------------------
 Symbolic Z-matrix:
 Charge =  0 Multiplicity = 1

                         Standard orientation:
 ---------------------------------------------------------------------
 Center     Atomic      Atomic             Coordinates (Angstroms)
 Number     Number       Type             X           Y           Z
 ---------------------------------------------------------------------
      1         17           0        4.545910   -1.599556   -0.617210
      2          6           0        3.521185   -0.200919   -0.320526
      3          6           0        3.844571    1.021480   -0.909035
      4          6           0        3.023595    2.122477   -0.655827
      5          6           0        1.902742    2.000445    0.167837
      6          6           0        1.583267    0.767725    0.752862
      7          6           0        0.355656    0.624424    1.644962
      8          6           0       -0.900463    0.241848    0.881859
      9          6           0       -1.757262    1.202794    0.340837
     10          9           0       -1.479451    2.513341    0.508974
     11          6           0       -2.908581    0.869443   -0.367993
     12          9           0       -3.704342    1.826277   -0.867168
     13          6           0       -3.232450   -0.472388   -0.555379
     14          9           0       -4.334798   -0.810017   -1.235642
     15          6           0       -2.404474   -1.460857   -0.028018
     16          9           0       -2.713816   -2.754052   -0.198629
     17          6           0       -1.260757   -1.091670    0.675452
     18          9           0       -0.486141   -2.075871    1.178361
     19          6           0        2.405049   -0.339824    0.504268
     20          1           0        4.718592    1.108244   -1.544811
     21          1           0        3.264937    3.082414   -1.102480
     22          1           0        1.274917    2.865903    0.357688
     23          1           0        0.542980   -0.135818    2.407567
     24          1           0        0.171685    1.568351    2.164471
     25          1           0        2.180888   -1.303613    0.949270
 ---------------------------------------------------------------------

 SCF Done:  E(RB3LYP) =  -1458.41290237     A.U. after   16 cycles

 Excitation energies and oscillator strengths:

 Excited State   1:      Triplet-A      3.6175 eV  342.73 nm  f=0.0000  <S**2>=2.000
      70 -> 78        -0.12705
      72 -> 74        -0.24598
      72 -> 76         0.15359
      72 -> 77         0.22190
      72 -> 78         0.20303
      73 -> 74        -0.20909
      73 -> 76        -0.24685
      73 -> 77        -0.28164
      73 -> 78         0.29848
 This state for optimization and/or second-order correction.
 Total Energy, E(TD-HF/TD-DFT) =  -1458.27996045
 Copying the excited state density for this state as the 1-particle RhoCI density.

 Excited State   2:      Triplet-A      3.6999 eV  335.10 nm  f=0.0000  <S**2>=2.000
      70 -> 74         0.41783
      70 -> 78         0.14298
      71 -> 76        -0.39480
      71 -> 77         0.25572
      72 -> 74         0.16562
      72 -> 78         0.12046

 Excited State   3:      Triplet-A      4.3972 eV  281.96 nm  f=0.0000  <S**2>=2.000
      72 -> 76         0.15279
      72 -> 77         0.17513
      73 -> 74         0.41135
      73 -> 75        -0.11762
      73 -> 76        -0.22643
      73 -> 77        -0.31047
      73 -> 78        -0.29630

 Excited State   4:      Singlet-A      4.9655 eV  249.69 nm  f=0.0157  <S**2>=0.000
      72 -> 74        -0.12766
      72 -> 76        -0.16204
      72 -> 77        -0.15106
      72 -> 78         0.14027
      73 -> 74         0.58138
      73 -> 76        -0.15603
      73 -> 77        -0.16633
      73 -> 78        -0.10821

 Excited State   5:      Singlet-A      5.2028 eV  238.30 nm  f=0.0090  <S**2>=0.000
      70 -> 76         0.26689
      70 -> 77        -0.15906
      71 -> 74         0.51503
      71 -> 78         0.11132
      72 -> 74         0.10670
      72 -> 76         0.19471
      73 -> 74         0.13918
      73 -> 76         0.17775

 Excited State   6:      Singlet-A      5.2336 eV  236.90 nm  f=0.0131  <S**2>=0.000
      70 -> 76        -0.13245
      71 -> 74        -0.18879
      72 -> 74         0.25809
      72 -> 77         0.12916
      72 -> 78        -0.11626
      73 -> 74         0.30839
      73 -> 75         0.34272
      73 -> 76         0.17748
      73 -> 77         0.21090
      73 -> 78         0.22185

 The electronic state is 1-A.
 Alpha  occ. eigenvalues -- -101.56196 -24.76840 -24.76558 -24.76517 -24.76452
 Alpha  occ. eigenvalues --  -24.76403 -10.33106 -10.32674 -10.32661 -10.32539
 Alpha  occ. eigenvalues --  -10.32524 -10.26983 -10.25777 -10.23584 -10.23214
 Alpha  occ. eigenvalues --  -10.21980 -10.21933 -10.21923 -10.21471  -9.47703
 Alpha  occ. eigenvalues --   -7.24110  -7.23139  -7.23108  -1.28536  -1.27841
 Alpha  occ. eigenvalues --   -1.27292  -1.26504  -1.26228  -0.92630  -0.90621
 Alpha  occ. eigenvalues --   -0.86049  -0.83145  -0.80152  -0.78677  -0.75426
 Alpha  occ. eigenvalues --   -0.72863  -0.68482  -0.67416  -0.63074  -0.61796
 Alpha  occ. eigenvalues --   -0.61271  -0.60730  -0.59065  -0.56758  -0.56038
 Alpha  occ. eigenvalues --   -0.54522  -0.54331  -0.53385  -0.51654  -0.50729
 Alpha  occ. eigenvalues --   -0.49393  -0.48870  -0.48475  -0.47970  -0.47826
 Alpha  occ. eigenvalues --   -0.46390  -0.46011  -0.44632  -0.44397  -0.43818
 Alpha  occ. eigenvalues --   -0.42343  -0.41921  -0.40514  -0.40295  -0.38823
 Alpha  occ. eigenvalues --   -0.37379  -0.36861  -0.34359  -0.32410  -0.28681
 Alpha  occ. eigenvalues --   -0.27983  -0.27486  -0.26119
 Alpha virt. eigenvalues --   -0.05380  -0.04569  -0.04143  -0.03426  -0.03136
 Alpha virt. eigenvalues --   -0.00265   0.00437   0.00794   0.01258   0.02849
 Alpha virt. eigenvalues --    0.03177   0.03580   0.03824   0.04543   0.04680

 Mulliken charges:
               1
     1  Cl   0.239731
     2  C   -0.040364
     3  C   -0.289438
     4  C   -0.245956
     5  C    0.042949
     6  C   -0.221852
     7  C    0.210747
     8  C    0.868192
     9  C   -0.609525
    10  F   -0.336020
    11  C    0.570422
    12  F   -0.342442
    13  C    0.291963
    14  F   -0.334582
    15  C    0.590326
    16  F   -0.341680
    17  C   -0.591596
    18  F   -0.334976
    19  C   -0.011302
    20  H    0.146779
    21  H    0.136954
    22  H    0.131436
    23  H    0.162785
    24  H    0.162811
    25  H    0.144635
 Sum of Mulliken charges =  -0.00000

 Dipole moment (field-independent basis, Debye):
    X=              0.7890    Y=              1.9512    Z=              1.2422  Tot=              2.4440
 Quadrupole moment (field-independent basis, Debye-Ang):
   XX=           -123.2880   YY=           -116.9542   ZZ=           -110.1886
   XY=              5.8965   XZ=             -5.2294   YZ=             -1.2169

 Normal termination of Gaussian 16 at Tue Oct  7 12:36:50 2025.
