 Gaussian 16, Revision C.02,
 Gaussian 16:  ES64L-G16RevC.02  7-Dec-2021

 ----------------------------------------------------------
 # td=(50-50,nstates=3) b3lyp/6-31+g(d,p) geom=connectivity
 ----------------------------------------------------------

 -------------------
 Title Card Required
 -------------------
 Symbolic Z-matrix:
 Charge =  0 Multiplicity = 1

                         Standard orientation:
 ---------------------------------------------------------------------
 Center     Atomic      Atomic             Coordinates (Angstroms)
 Number     Number       Type             X           Y           Z
 ---------------------------------------------------------------------
      1          6           0        4.538948   -0.784985   -1.077631
      2          7           0        3.137662   -0.662778   -0.724643
      3          6           0        2.543739   -1.740969    0.077884
      4          6           0        1.155748   -1.189116    0.512289
      5          6           0        0.708849   -1.762056    1.862863
      6          6           0        0.128911   -1.542596   -0.625516
      7          6           0       -1.258912   -0.959437   -0.496935
      8          6           0       -2.286277   -1.670276    0.145959
      9          6           0       -3.569987   -1.143637    0.263858
     10          6           0       -3.856272    0.123690   -0.272230
     11          6           0       -5.176586    0.673483   -0.159121
     12          7           0       -6.248005    1.119406   -0.065403
     13          6           0       -2.842355    0.843960   -0.927167
     14          6           0       -1.564285    0.302059   -1.034797
     15          6           0        1.466120    0.304296    0.539581
     16          6           0        0.796518    1.362779    1.138913
     17          6           0        1.289961    2.669447    0.984192
     18          6           0        2.444261    2.893630    0.230114
     19          6           0        3.136368    1.834586   -0.374716
     20          6           0        2.634872    0.539709   -0.213307
     21          1           0        4.711082   -1.763996   -1.533778
     22          1           0        4.810330   -0.023883   -1.814090
     23          1           0        5.207551   -0.682257   -0.204648
     24          1           0        2.473104   -2.666155   -0.504570
     25          1           0        3.163118   -1.940773    0.971174
     26          1           0        0.599571   -2.852260    1.809068
     27          1           0        1.441792   -1.530753    2.641832
     28          1           0       -0.253730   -1.346988    2.175581
     29          1           0        0.569654   -1.221189   -1.575416
     30          1           0        0.052162   -2.636644   -0.661801
     31          1           0       -2.080748   -2.656734    0.552351
     32          1           0       -4.353092   -1.706915    0.760662
     33          1           0       -3.062726    1.819022   -1.349080
     34          1           0       -0.789790    0.866023   -1.545007
     35          1           0       -0.098386    1.187915    1.729330
     36          1           0        0.777158    3.502007    1.455623
     37          1           0        2.825511    3.904955    0.118932
     38          1           0        4.042115    2.024828   -0.941237
 ---------------------------------------------------------------------

 SCF Done:  E(RB3LYP) =  -806.304645298     A.U. after   16 cycles

 Excitation energies and oscillator strengths:

 Excited State   1:      Triplet-A      3.2917 eV  376.66 nm  f=0.0000  <S**2>=2.000
      67 -> 72         0.20548
      68 -> 71         0.48624
      70 -> 71         0.45078
 This state for optimization and/or second-order correction.
 Total Energy, E(TD-HF/TD-DFT) =  -806.183676966
 Copying the excited state density for this state as the 1-particle RhoCI density.

 Excited State   2:      Singlet-A      3.4402 eV  360.40 nm  f=0.0173  <S**2>=0.000
      70 -> 71         0.70610

 Excited State   3:      Triplet-A      3.4670 eV  357.61 nm  f=0.0000  <S**2>=2.000
      68 -> 71        -0.14123
      69 -> 73         0.27563
      70 -> 71         0.13905
      70 -> 72        -0.16778
      70 -> 73        -0.24488
      70 -> 74        -0.24289
      70 -> 75         0.35308
      70 -> 76        -0.26562
      70 -> 77         0.10202

 Excited State   4:      Triplet-A      3.4889 eV  355.37 nm  f=0.0000  <S**2>=2.000
      67 -> 72        -0.17368
      68 -> 71        -0.37668
      70 -> 71         0.50306
      70 -> 75        -0.13953
      70 -> 76         0.11121

 Excited State   5:      Singlet-A      4.1053 eV  302.01 nm  f=0.0056  <S**2>=0.000
      70 -> 72         0.70511

 Excited State   6:      Singlet-A      4.3913 eV  282.34 nm  f=0.0572  <S**2>=0.000
      69 -> 75        -0.11879
      70 -> 73         0.68124

 The electronic state is 1-A.
 Alpha  occ. eigenvalues --  -14.36231 -14.34356 -10.24466 -10.23555 -10.23132
 Alpha  occ. eigenvalues --  -10.23038 -10.22765 -10.22641 -10.22528 -10.22423
 Alpha  occ. eigenvalues --  -10.22295 -10.21596 -10.21321 -10.20793 -10.19836
 Alpha  occ. eigenvalues --  -10.19812 -10.19620 -10.19525 -10.19297 -10.18981
 Alpha  occ. eigenvalues --   -0.97092  -0.91332  -0.88487  -0.85411  -0.83405
 Alpha  occ. eigenvalues --   -0.79567  -0.77354  -0.75251  -0.74483  -0.72252
 Alpha  occ. eigenvalues --   -0.71343  -0.66572  -0.63623  -0.63483  -0.62177
 Alpha  occ. eigenvalues --   -0.58566  -0.57004  -0.56601  -0.51260  -0.50160
 Alpha  occ. eigenvalues --   -0.49826  -0.49074  -0.47624  -0.47317  -0.45858
 Alpha  occ. eigenvalues --   -0.45255  -0.44676  -0.44291  -0.43879  -0.42231
 Alpha  occ. eigenvalues --   -0.41721  -0.40908  -0.40336  -0.40006  -0.38666
 Alpha  occ. eigenvalues --   -0.38251  -0.37681  -0.36981  -0.36531  -0.36263
 Alpha  occ. eigenvalues --   -0.35879  -0.34334  -0.34041  -0.33563  -0.33069
 Alpha  occ. eigenvalues --   -0.29633  -0.27977  -0.26410  -0.25479  -0.20517
 Alpha virt. eigenvalues --   -0.05980  -0.03477  -0.01754  -0.01225  -0.00434
 Alpha virt. eigenvalues --    0.00282   0.00571   0.01200   0.01753   0.02014
 Alpha virt. eigenvalues --    0.02457   0.02673   0.02922   0.03595   0.03778

 Mulliken charges:
               1
     1  C   -0.235459
     2  N    0.056817
     3  C   -0.489754
     4  C    0.230134
     5  C   -0.579075
     6  C   -0.616611
     7  C    0.801814
     8  C   -0.184402
     9  C   -0.175301
    10  C    0.336872
    11  C   -0.080785
    12  N   -0.544124
    13  C   -0.365483
    14  C    0.273624
    15  C    0.680502
    16  C   -0.395889
    17  C   -0.254692
    18  C   -0.290796
    19  C   -0.109713
    20  C   -0.557839
    21  H    0.142295
    22  H    0.144825
    23  H    0.143504
    24  H    0.137716
    25  H    0.136757
    26  H    0.144245
    27  H    0.154772
    28  H    0.162735
    29  H    0.167364
    30  H    0.141048
    31  H    0.126855
    32  H    0.145529
    33  H    0.145269
    34  H    0.131664
    35  H    0.117664
    36  H    0.120624
    37  H    0.121743
    38  H    0.115550
 Sum of Mulliken charges =  -0.00000

 Dipole moment (field-independent basis, Debye):
    X=              6.0049    Y=             -2.9973    Z=             -0.2774  Tot=              6.7171
 Quadrupole moment (field-independent basis, Debye-Ang):
   XX=           -151.9591   YY=           -112.7798   ZZ=           -120.7384
   XY=              7.8013   XZ=             -4.9543   YZ=             -3.0455

 Normal termination of Gaussian 16 at Mon Aug 25 14:42:24 2025.
