 Gaussian 16, Revision C.02,
 Gaussian 16:  ES64L-G16RevC.02  7-Dec-2021

 ----------------------------------------------------------
 # td=(50-50,nstates=3) b3lyp/6-31+g(d,p) geom=connectivity
 ----------------------------------------------------------

 -------------------
 Title Card Required
 -------------------
 Symbolic Z-matrix:
 Charge =  0 Multiplicity = 1

                         Standard orientation:
 ---------------------------------------------------------------------
 Center     Atomic      Atomic             Coordinates (Angstroms)
 Number     Number       Type             X           Y           Z
 ---------------------------------------------------------------------
      1          6           0       -7.314007    0.207086   -2.309476
      2          6           0       -6.118515   -0.326372   -1.557251
      3          6           0       -5.404871    0.482894   -0.663587
      4          6           0       -4.298745   -0.015922    0.026876
      5         16           0       -3.554149    1.081620    1.263524
      6          8           0       -4.435049    2.250802    1.408759
      7          8           0       -3.161120    0.252530    2.414819
      8          6           0       -3.872353   -1.345460   -0.137794
      9          6           0       -2.697811   -1.980270    0.568747
     10          8           0       -2.844563   -3.026310    1.179821
     11          6           0       -1.333726   -1.373556    0.410386
     12          6           0       -0.383771   -1.561023    1.424575
     13          6           0        0.901755   -1.050723    1.281246
     14          6           0        1.270918   -0.360782    0.112025
     15          6           0        2.668177    0.126729   -0.057437
     16          6           0        3.677313   -0.795569   -0.046322
     17          6           0        5.059104   -0.454115   -0.277056
     18          6           0        6.056600   -1.422634   -0.241439
     19          6           0        7.423918   -1.102120   -0.497746
     20          7           0        8.537088   -0.831368   -0.708819
     21          6           0        5.771666   -2.789853    0.053992
     22          7           0        5.531477   -3.903847    0.295411
     23          6           0        5.364388    0.925113   -0.578124
     24          6           0        4.385384    1.860803   -0.578066
     25          6           0        3.004541    1.540210   -0.257478
     26          6           0        2.110258    2.597855   -0.106162
     27          6           0        0.753463    2.513954    0.333168
     28          7           0       -0.351783    2.573837    0.694750
     29          6           0        2.528505    3.946750   -0.346504
     30          7           0        2.857064    5.045704   -0.548475
     31          6           0        0.329753   -0.207349   -0.916599
     32          6           0       -0.966623   -0.695763   -0.761284
     33          6           0       -4.609411   -2.159491   -1.009483
     34          6           0       -5.701932   -1.656276   -1.713460
     35          1           0       -7.499207    1.257393   -2.071389
     36          1           0       -7.166485    0.126283   -3.392387
     37          1           0       -8.218733   -0.359430   -2.061761
     38          1           0       -5.720523    1.503392   -0.471169
     39          1           0       -2.403899    1.517143    0.668962
     40          1           0       -0.675175   -2.090385    2.325015
     41          1           0        1.622401   -1.169134    2.084880
     42          1           0        3.425218   -1.840027    0.106080
     43          1           0        6.389480    1.207798   -0.792750
     44          1           0        4.637196    2.894713   -0.786374
     45          1           0        0.608219    0.293601   -1.839337
     46          1           0       -1.686263   -0.567873   -1.564225
     47          1           0       -4.313676   -3.197341   -1.127102
     48          1           0       -6.247091   -2.313189   -2.386571
 ---------------------------------------------------------------------

 SCF Done:  E(RB3LYP) =  -1841.94716446     A.U. after   22 cycles

 Excitation energies and oscillator strengths:

 Excited State   1:      Triplet-A      0.6129 eV 2022.96 nm  f=0.0000  <S**2>=2.000
     116 ->120         0.23711
     118 ->120         0.69382
     119 ->120        -0.28835
     116 <-120         0.12554
     118 <-120         0.33024
     119 <-120        -0.12938
 This state for optimization and/or second-order correction.
 Total Energy, E(TD-HF/TD-DFT) =  -1841.92464130
 Copying the excited state density for this state as the 1-particle RhoCI density.

 Excited State   2:      Triplet-A      1.8660 eV  664.44 nm  f=0.0000  <S**2>=2.000
     116 ->120         0.29609
     117 ->120         0.10491
     118 ->120         0.12603
     119 ->120         0.59166

 Excited State   3:      Singlet-A      1.9149 eV  647.48 nm  f=0.0176  <S**2>=0.000
     116 ->120         0.15741
     118 ->120         0.10187
     119 ->120         0.67176

 Excited State   4:      Triplet-A      2.1036 eV  589.39 nm  f=0.0000  <S**2>=2.000
     110 ->120        -0.12978
     114 ->120        -0.17292
     115 ->120         0.15787
     116 ->120         0.48426
     118 ->120        -0.31179
     119 ->120        -0.27516

 Excited State   5:      Singlet-A      2.1838 eV  567.75 nm  f=0.0283  <S**2>=0.000
     115 ->120         0.19700
     116 ->120         0.49873
     117 ->120         0.15156
     118 ->120        -0.40778

 Excited State   6:      Singlet-A      2.2769 eV  544.53 nm  f=0.0079  <S**2>=0.000
     114 ->120         0.22787
     115 ->120         0.17579
     116 ->120        -0.15907
     117 ->120         0.61582

 The electronic state is 1-A.
 Alpha  occ. eigenvalues --  -89.11150 -19.17369 -19.16113 -19.16072 -14.39694
 Alpha  occ. eigenvalues --  -14.39554 -14.39468 -14.39462 -10.32825 -10.32507
 Alpha  occ. eigenvalues --  -10.31237 -10.30918 -10.30243 -10.29138 -10.28690
 Alpha  occ. eigenvalues --  -10.28675 -10.28550 -10.28529 -10.27373 -10.27282
 Alpha  occ. eigenvalues --  -10.27132 -10.25726 -10.25451 -10.24496 -10.24187
 Alpha  occ. eigenvalues --  -10.24136 -10.24046 -10.24030 -10.23882 -10.23365
 Alpha  occ. eigenvalues --  -10.23272 -10.23158 -10.22962 -10.21175  -8.14032
 Alpha  occ. eigenvalues --   -6.10467  -6.10415  -6.10337  -1.11413  -1.07183
 Alpha  occ. eigenvalues --   -1.01423  -0.97606  -0.97035  -0.95613  -0.95362
 Alpha  occ. eigenvalues --   -0.94634  -0.91001  -0.90306  -0.89881  -0.85644
 Alpha  occ. eigenvalues --   -0.84591  -0.82260  -0.79809  -0.79613  -0.79291
 Alpha  occ. eigenvalues --   -0.77639  -0.73436  -0.71170  -0.70604  -0.69755
 Alpha  occ. eigenvalues --   -0.66868  -0.65598  -0.64534  -0.63827  -0.62888
 Alpha  occ. eigenvalues --   -0.60890  -0.60317  -0.59633  -0.58470  -0.56135
 Alpha  occ. eigenvalues --   -0.53424  -0.52545  -0.51971  -0.51447  -0.50594
 Alpha  occ. eigenvalues --   -0.50425  -0.49634  -0.48580  -0.47970  -0.47790
 Alpha  occ. eigenvalues --   -0.46971  -0.46599  -0.46513  -0.46102  -0.45875
 Alpha  occ. eigenvalues --   -0.45386  -0.44902  -0.43465  -0.43062  -0.42587
 Alpha  occ. eigenvalues --   -0.42289  -0.41675  -0.41633  -0.41273  -0.41161
 Alpha  occ. eigenvalues --   -0.40536  -0.40259  -0.39802  -0.39385  -0.39247
 Alpha  occ. eigenvalues --   -0.39211  -0.38991  -0.38935  -0.38427  -0.38238
 Alpha  occ. eigenvalues --   -0.37866  -0.37529  -0.35620  -0.34376  -0.33935
 Alpha  occ. eigenvalues --   -0.33464  -0.32185  -0.30908  -0.30117  -0.29736
 Alpha  occ. eigenvalues --   -0.29257  -0.28827  -0.28006  -0.27406
 Alpha virt. eigenvalues --   -0.19017  -0.10136  -0.08184  -0.07920  -0.06811
 Alpha virt. eigenvalues --   -0.05495  -0.05397  -0.04715  -0.04400  -0.02673
 Alpha virt. eigenvalues --   -0.01359  -0.01019  -0.00899  -0.00433  -0.00384

 Mulliken charges:
               1
     1  C   -0.528057
     2  C    0.184502
     3  C   -0.000696
     4  C   -1.484279
     5  S    1.275060
     6  O   -0.551809
     7  O   -0.441747
     8  C    0.220236
     9  C    0.359108
    10  O   -0.323373
    11  C    0.322779
    12  C    0.029862
    13  C   -0.162678
    14  C   -0.003300
    15  C    0.192241
    16  C   -0.324283
    17  C    1.434302
    18  C    0.709288
    19  C   -0.182920
    20  N   -0.455875
    21  C   -0.507032
    22  N   -0.447197
    23  C   -0.446726
    24  C   -0.329290
    25  C    0.361317
    26  C    1.389683
    27  C   -0.577044
    28  N   -0.346556
    29  C   -0.260872
    30  N   -0.445052
    31  C   -0.487193
    32  C   -0.379544
    33  C    0.372142
    34  C   -0.268622
    35  H    0.160512
    36  H    0.169388
    37  H    0.173683
    38  H    0.176129
    39  H    0.049571
    40  H    0.164019
    41  H    0.138826
    42  H    0.169763
    43  H    0.174524
    44  H    0.171742
    45  H    0.131158
    46  H    0.137713
    47  H    0.148002
    48  H    0.138593
 Sum of Mulliken charges =  -0.00000

 Dipole moment (field-independent basis, Debye):
    X=             -0.7412    Y=             -0.3561    Z=             -6.4120  Tot=              6.4645
 Quadrupole moment (field-independent basis, Debye-Ang):
   XX=           -219.6052   YY=           -245.0242   ZZ=           -205.3565
   XY=             18.6103   XZ=             32.7857   YZ=              2.0586

 Normal termination of Gaussian 16 at Mon Aug 25 14:56:55 2025.
