 Gaussian 16, Revision C.02,
 Gaussian 16:  ES64L-G16RevC.02  7-Dec-2021

 ----------------------------------------------------------
 # td=(50-50,nstates=3) b3lyp/6-31+g(d,p) geom=connectivity
 ----------------------------------------------------------

 -------------------
 Title Card Required
 -------------------
 Symbolic Z-matrix:
 Charge =  0 Multiplicity = 1

                         Standard orientation:
 ---------------------------------------------------------------------
 Center     Atomic      Atomic             Coordinates (Angstroms)
 Number     Number       Type             X           Y           Z
 ---------------------------------------------------------------------
      1          6           0       -4.500918   -1.174375    2.147406
      2          6           0       -3.443095   -1.452168    1.352707
      3          6           0       -2.557749   -2.515581    1.749579
      4          7           0       -1.859758   -3.373813    2.109783
      5          6           0       -3.158211   -0.702581    0.126391
      6          6           0       -2.227220   -0.790359   -0.850037
      7          6           0       -1.137315   -1.809269   -1.069751
      8          6           0       -1.449673   -2.638872   -2.339521
      9          6           0        0.288066   -1.208539   -1.183927
     10          6           0        0.941456   -0.669622    0.144278
     11          6           0        0.368672    0.676026    0.490702
     12          6           0        1.004229    1.854135    0.339136
     13          6           0        0.384209    3.217085    0.691082
     14          6           0       -0.993982    3.057464    1.362849
     15          6           0        1.307868    3.969674    1.682149
     16          6           0        0.200146    4.064919   -0.593017
     17          6           0        2.389038    1.806577   -0.213678
     18          8           0        2.992329    2.807272   -0.590426
     19          6           0        3.078085    0.475894   -0.245454
     20          8           0        4.405686    0.644958   -0.520740
     21          6           0        2.453455   -0.700585    0.018391
     22          6           0        3.210609   -2.049349    0.159076
     23          6           0        4.314136   -1.918463    1.246594
     24          6           0        2.298927   -3.206107    0.634294
     25          6           0        3.841900   -2.491326   -1.189349
     26          6           0       -2.513159    0.321944   -1.830077
     27          6           0       -3.734099    1.008597   -1.246011
     28          8           0       -4.365873    1.946653   -1.647633
     29          8           0       -4.060560    0.353471   -0.072451
     30          1           0       -5.187332   -0.376320    1.893685
     31          1           0       -4.677537   -1.744760    3.051629
     32          1           0       -1.131054   -2.503803   -0.226705
     33          1           0       -0.734497   -3.461782   -2.437182
     34          1           0       -2.454813   -3.069276   -2.292714
     35          1           0       -1.380215   -2.030138   -3.247897
     36          1           0        0.924376   -2.005119   -1.576891
     37          1           0        0.316200   -0.408154   -1.933176
     38          1           0        0.638294   -1.357662    0.942609
     39          1           0       -0.651758    0.656676    0.857156
     40          1           0       -1.382491    4.046041    1.627355
     41          1           0       -1.731105    2.591794    0.699689
     42          1           0       -0.935920    2.466800    2.284179
     43          1           0        0.853025    4.929572    1.952036
     44          1           0        2.288461    4.165757    1.246006
     45          1           0        1.443435    3.392367    2.604193
     46          1           0       -0.475331    3.565904   -1.298143
     47          1           0       -0.246460    5.032418   -0.336072
     48          1           0        1.154327    4.243124   -1.090550
     49          1           0        4.831966   -0.210092   -0.642929
     50          1           0        4.839042   -2.873803    1.357907
     51          1           0        5.064295   -1.153289    1.032914
     52          1           0        3.866624   -1.664148    2.212500
     53          1           0        2.900478   -4.116592    0.723006
     54          1           0        1.484052   -3.427203   -0.059555
     55          1           0        1.863750   -3.009842    1.618641
     56          1           0        4.532840   -1.756994   -1.618278
     57          1           0        4.404110   -3.422062   -1.053897
     58          1           0        3.071549   -2.671646   -1.945587
     59          1           0       -1.695282    1.047109   -1.921159
     60          1           0       -2.739638   -0.027737   -2.844137
 ---------------------------------------------------------------------

 SCF Done:  E(RB3LYP) =  -1288.88703333     A.U. after   16 cycles

 Excitation energies and oscillator strengths:

 Excited State   1:      Triplet-A      2.3366 eV  530.63 nm  f=0.0000  <S**2>=2.000
     102 ->108        -0.19605
     104 ->108        -0.17734
     105 ->108         0.60171
     106 ->108         0.22106
     105 <-108         0.11364
 This state for optimization and/or second-order correction.
 Total Energy, E(TD-HF/TD-DFT) =  -1288.80116659
 Copying the excited state density for this state as the 1-particle RhoCI density.

 Excited State   2:      Triplet-A      2.7102 eV  457.47 nm  f=0.0000  <S**2>=2.000
     107 ->108        -0.16798
     107 ->109         0.64383
     107 ->114         0.16958

 Excited State   3:      Triplet-A      2.9088 eV  426.23 nm  f=0.0000  <S**2>=2.000
     105 ->109        -0.13378
     106 ->108        -0.16101
     106 ->109         0.65210

 Excited State   4:      Singlet-A      3.3448 eV  370.68 nm  f=0.0015  <S**2>=0.000
     105 ->109        -0.10927
     106 ->108        -0.20907
     106 ->109         0.55393
     107 ->108        -0.28904
     107 ->109         0.21490

 Excited State   5:      Singlet-A      3.4389 eV  360.53 nm  f=0.0038  <S**2>=0.000
     106 ->108        -0.11464
     106 ->109         0.25192
     107 ->108         0.64295

 Excited State   6:      Singlet-A      3.7969 eV  326.54 nm  f=0.0142  <S**2>=0.000
     106 ->108         0.65797
     106 ->109         0.19938
     107 ->109         0.14235

 The electronic state is 1-A.
 Alpha  occ. eigenvalues --  -19.23632 -19.19000 -19.17429 -19.13816 -14.37221
 Alpha  occ. eigenvalues --  -10.35039 -10.29537 -10.27970 -10.27690 -10.26532
 Alpha  occ. eigenvalues --  -10.25813 -10.24505 -10.24249 -10.24068 -10.23408
 Alpha  occ. eigenvalues --  -10.23306 -10.22547 -10.21962 -10.21518 -10.21241
 Alpha  occ. eigenvalues --  -10.21101 -10.20893 -10.20854 -10.20332 -10.19521
 Alpha  occ. eigenvalues --  -10.19460 -10.18060 -10.17026 -10.16963  -1.14525
 Alpha  occ. eigenvalues --   -1.07482  -1.06485  -1.03166  -0.94153  -0.88060
 Alpha  occ. eigenvalues --   -0.86781  -0.85467  -0.83958  -0.81784  -0.79992
 Alpha  occ. eigenvalues --   -0.75631  -0.74996  -0.74664  -0.71108  -0.70376
 Alpha  occ. eigenvalues --   -0.69122  -0.68483  -0.68102  -0.67886  -0.66617
 Alpha  occ. eigenvalues --   -0.64099  -0.62256  -0.60208  -0.58042  -0.57734
 Alpha  occ. eigenvalues --   -0.56676  -0.55616  -0.52218  -0.51628  -0.51213
 Alpha  occ. eigenvalues --   -0.50274  -0.49632  -0.48608  -0.47552  -0.47041
 Alpha  occ. eigenvalues --   -0.46574  -0.46132  -0.45650  -0.45265  -0.44433
 Alpha  occ. eigenvalues --   -0.44157  -0.43919  -0.43666  -0.43342  -0.42996
 Alpha  occ. eigenvalues --   -0.42718  -0.42450  -0.41485  -0.41274  -0.41026
 Alpha  occ. eigenvalues --   -0.40142  -0.39911  -0.39476  -0.39341  -0.38889
 Alpha  occ. eigenvalues --   -0.38670  -0.38353  -0.38271  -0.38094  -0.38014
 Alpha  occ. eigenvalues --   -0.37553  -0.36869  -0.36663  -0.35750  -0.35494
 Alpha  occ. eigenvalues --   -0.35302  -0.34899  -0.33595  -0.33404  -0.33328
 Alpha  occ. eigenvalues --   -0.32333  -0.31905  -0.30493  -0.26936  -0.26036
 Alpha  occ. eigenvalues --   -0.24871  -0.23789
 Alpha virt. eigenvalues --   -0.09571  -0.07034  -0.03865  -0.02027  -0.00995
 Alpha virt. eigenvalues --   -0.00619  -0.00325  -0.00124  -0.00011   0.00470
 Alpha virt. eigenvalues --    0.01365   0.01611   0.01994   0.02038   0.02723

 Mulliken charges:
               1
     1  C   -0.180880
     2  C    0.749996
     3  C   -0.390059
     4  N   -0.453225
     5  C    0.330747
     6  C   -0.432443
     7  C    0.422736
     8  C   -0.640125
     9  C   -0.928005
    10  C   -0.201077
    11  C    0.230460
    12  C    0.415569
    13  C    0.344114
    14  C   -0.498237
    15  C   -0.502520
    16  C   -0.526205
    17  C    0.123667
    18  O   -0.413294
    19  C   -0.098626
    20  O   -0.422095
    21  C   -0.227199
    22  C   -0.018680
    23  C   -0.394793
    24  C   -0.427233
    25  C   -0.370297
    26  C   -0.087342
    27  C    0.306578
    28  O   -0.398567
    29  O   -0.272183
    30  H    0.186896
    31  H    0.170270
    32  H    0.142549
    33  H    0.152217
    34  H    0.158738
    35  H    0.151541
    36  H    0.131669
    37  H    0.156798
    38  H    0.148241
    39  H    0.126816
    40  H    0.152896
    41  H    0.136729
    42  H    0.148660
    43  H    0.141601
    44  H    0.184533
    45  H    0.142675
    46  H    0.129116
    47  H    0.142957
    48  H    0.187330
    49  H    0.335552
    50  H    0.150035
    51  H    0.131764
    52  H    0.161528
    53  H    0.150707
    54  H    0.146017
    55  H    0.164449
    56  H    0.119019
    57  H    0.155010
    58  H    0.148563
    59  H    0.205820
    60  H    0.198526
 Sum of Mulliken charges =  -0.00000

 Dipole moment (field-independent basis, Debye):
    X=             -0.9213    Y=             -5.2570    Z=             -0.0564  Tot=              5.3374
 Quadrupole moment (field-independent basis, Debye-Ang):
   XX=           -187.0762   YY=           -195.2501   ZZ=           -174.8492
   XY=             -8.8773   XZ=             -5.1491   YZ=             14.5110

 Normal termination of Gaussian 16 at Mon Aug 25 14:52:47 2025.
