 Gaussian 16, Revision C.02,
 Gaussian 16:  ES64L-G16RevC.02  7-Dec-2021

 ----------------------------------------------------------
 # td=(50-50,nstates=3) b3lyp/6-31+g(d,p) geom=connectivity
 ----------------------------------------------------------

 -------------------
 Title Card Required
 -------------------
 Symbolic Z-matrix:
 Charge =  0 Multiplicity = 1

                         Standard orientation:
 ---------------------------------------------------------------------
 Center     Atomic      Atomic             Coordinates (Angstroms)
 Number     Number       Type             X           Y           Z
 ---------------------------------------------------------------------
      1          6           0        1.177133    3.147895    0.154122
      2          6           0        0.273622    1.968302   -0.000051
      3          6           0        0.686495    0.713843   -0.480064
      4          6           0        2.100872    0.479068   -0.999434
      5          8           0        2.413404    1.030310   -2.043745
      6          6           0        3.042386   -0.342466   -0.200080
      7          6           0        4.323623   -0.591200   -0.721469
      8          6           0        5.241787   -1.338877    0.010551
      9          6           0        4.891195   -1.840831    1.269879
     10          6           0        3.618811   -1.595995    1.794491
     11          6           0        2.695592   -0.851782    1.061016
     12          7           0       -0.163896   -0.330189   -0.608978
     13          8           0        0.232014   -1.463052   -1.071363
     14          6           0       -1.500496   -0.150344   -0.235357
     15          6           0       -2.405051   -1.219762   -0.361355
     16          6           0       -3.716583   -1.015844    0.017066
     17         17           0       -4.870332   -2.324254   -0.123234
     18          6           0       -4.159500    0.229680    0.517729
     19          6           0       -3.270322    1.278645    0.637099
     20          6           0       -1.926015    1.099289    0.259917
     21          7           0       -1.019843    2.158966    0.375568
     22          8           0       -1.417541    3.292392    0.833183
     23          1           0        2.197421    2.911820   -0.143082
     24          1           0        0.808120    3.978511   -0.456855
     25          1           0        1.156976    3.496279    1.192035
     26          1           0        4.575155   -0.193484   -1.698938
     27          1           0        6.229364   -1.533349   -0.396675
     28          1           0        5.608738   -2.423872    1.839968
     29          1           0        3.345755   -1.988181    2.769283
     30          1           0        1.705435   -0.672406    1.468014
     31          1           0       -2.042814   -2.162306   -0.750839
     32          1           0       -5.197792    0.353819    0.803610
     33          1           0       -3.568844    2.249125    1.013371
 ---------------------------------------------------------------------

 SCF Done:  E(RB3LYP) =  -1411.63959549     A.U. after   18 cycles

 Excitation energies and oscillator strengths:

 Excited State   1:      Triplet-A      0.9929 eV 1248.75 nm  f=0.0000  <S**2>=2.000
      81 -> 82         0.72773
      81 -> 83        -0.13855
      81 -> 85         0.12169
      81 -> 86        -0.11365
      81 <- 82         0.27528
 This state for optimization and/or second-order correction.
 Total Energy, E(TD-HF/TD-DFT) =  -1411.60310821
 Copying the excited state density for this state as the 1-particle RhoCI density.

 Excited State   2:      Triplet-A      2.8340 eV  437.50 nm  f=0.0000  <S**2>=2.000
      80 -> 82        -0.10155
      81 -> 82         0.12197
      81 -> 83         0.62734
      81 -> 84        -0.20595

 Excited State   3:      Singlet-A      2.8619 eV  433.23 nm  f=0.0272  <S**2>=0.000
      81 -> 82         0.50077
      81 -> 83         0.48592

 Excited State   4:      Triplet-A      3.1299 eV  396.13 nm  f=0.0000  <S**2>=2.000
      76 -> 83         0.22114
      78 -> 82         0.15921
      78 -> 83         0.14858
      79 -> 82         0.20591
      79 -> 83         0.31829
      79 -> 85         0.10255
      79 -> 86         0.11333
      80 -> 82         0.22629
      80 -> 83         0.35196

 Excited State   5:      Singlet-A      3.1889 eV  388.81 nm  f=0.0923  <S**2>=0.000
      81 -> 82        -0.46324
      81 -> 83         0.50307
      81 -> 85         0.12585
      81 -> 86        -0.11043

 Excited State   6:      Singlet-A      3.4655 eV  357.77 nm  f=0.0040  <S**2>=0.000
      75 -> 82         0.20682
      77 -> 82        -0.15569
      78 -> 82        -0.34166
      79 -> 82        -0.16311
      80 -> 82         0.48907
      81 -> 84        -0.14789

 The electronic state is 1-A.
 Alpha  occ. eigenvalues -- -101.57781 -19.17534 -19.15884 -19.15702 -14.51283
 Alpha  occ. eigenvalues --  -14.50732 -10.31575 -10.29230 -10.28486 -10.28467
 Alpha  occ. eigenvalues --  -10.28232 -10.28097 -10.24371 -10.24058 -10.24010
 Alpha  occ. eigenvalues --  -10.22549 -10.22419 -10.22255 -10.21843 -10.21811
 Alpha  occ. eigenvalues --  -10.21697 -10.21240  -9.49276  -7.25698  -7.24713
 Alpha  occ. eigenvalues --   -7.24666  -1.14507  -1.13226  -1.07332  -0.95439
 Alpha  occ. eigenvalues --   -0.92240  -0.88413  -0.87766  -0.86818  -0.81961
 Alpha  occ. eigenvalues --   -0.80744  -0.78689  -0.77277  -0.74521  -0.72887
 Alpha  occ. eigenvalues --   -0.66907  -0.66122  -0.64399  -0.63182  -0.62295
 Alpha  occ. eigenvalues --   -0.59614  -0.56650  -0.55134  -0.53236  -0.52344
 Alpha  occ. eigenvalues --   -0.50583  -0.50079  -0.49214  -0.48483  -0.48142
 Alpha  occ. eigenvalues --   -0.47824  -0.47700  -0.45826  -0.45116  -0.44709
 Alpha  occ. eigenvalues --   -0.44623  -0.43351  -0.42920  -0.42395  -0.41649
 Alpha  occ. eigenvalues --   -0.41296  -0.40208  -0.38333  -0.38040  -0.36803
 Alpha  occ. eigenvalues --   -0.35898  -0.33924  -0.31100  -0.30321  -0.29177
 Alpha  occ. eigenvalues --   -0.28885  -0.28391  -0.28022  -0.27745  -0.27552
 Alpha  occ. eigenvalues --   -0.22540
 Alpha virt. eigenvalues --   -0.11109  -0.08866  -0.06599  -0.03423  -0.03247
 Alpha virt. eigenvalues --   -0.00945  -0.00731   0.00138   0.00513   0.00839
 Alpha virt. eigenvalues --    0.01537   0.02226   0.02364   0.02743   0.03164

 Mulliken charges:
               1
     1  C   -0.763308
     2  C    0.560031
     3  C    0.424383
     4  C   -0.317290
     5  O   -0.351263
     6  C    0.422954
     7  C    0.280887
     8  C   -0.082663
     9  C   -0.118023
    10  C   -0.327985
    11  C   -0.501000
    12  N   -0.482624
    13  O    0.126263
    14  C    0.074500
    15  C   -0.428250
    16  C    0.300438
    17  Cl   0.276713
    18  C   -0.079008
    19  C   -0.527783
    20  C    0.162065
    21  N   -0.466791
    22  O    0.063882
    23  H    0.159968
    24  H    0.191634
    25  H    0.185618
    26  H    0.159160
    27  H    0.135579
    28  H    0.133729
    29  H    0.134756
    30  H    0.117077
    31  H    0.192305
    32  H    0.158787
    33  H    0.185260
 Sum of Mulliken charges =  -0.00000

 Dipole moment (field-independent basis, Debye):
    X=              0.9389    Y=             -0.7031    Z=              3.0282  Tot=              3.2474
 Quadrupole moment (field-independent basis, Debye-Ang):
   XX=           -113.5677   YY=           -143.6910   ZZ=           -137.9863
   XY=             -3.9344   XZ=              5.6074   YZ=             -5.1747

 Normal termination of Gaussian 16 at Tue Oct  7 12:44:09 2025.
