 Gaussian 16, Revision C.02,
 Gaussian 16:  ES64L-G16RevC.02  7-Dec-2021

 ----------------------------------------------------------
 # td=(50-50,nstates=3) b3lyp/6-31+g(d,p) geom=connectivity
 ----------------------------------------------------------

 -------------------
 Title Card Required
 -------------------
 Symbolic Z-matrix:
 Charge =  0 Multiplicity = 1

                         Standard orientation:
 ---------------------------------------------------------------------
 Center     Atomic      Atomic             Coordinates (Angstroms)
 Number     Number       Type             X           Y           Z
 ---------------------------------------------------------------------
      1          6           0       -2.679048    3.657139   -0.265368
      2          7           0       -1.572129    2.815519    0.171249
      3          6           0       -0.417880    2.741362   -0.712854
      4          6           0        0.718185    2.023694    0.014838
      5          6           0        0.199561    0.683699    0.479782
      6          7           0        0.961901   -0.404212    0.431808
      7          8           0        0.542691   -1.610949    0.639312
      8          6           0        2.386465   -0.328790    0.147001
      9          6           0        2.885177   -1.088718   -0.912736
     10          6           0        4.252787   -1.089078   -1.178214
     11          6           0        5.108777   -0.345821   -0.360383
     12         17           0        6.833634   -0.351693   -0.688160
     13          6           0        4.618771    0.392189    0.716822
     14          6           0        3.245133    0.398688    0.970483
     15          7           0       -1.977650    1.688027    0.799389
     16          6           0       -1.192060    0.645515    0.922974
     17          6           0       -1.783690   -0.482296    1.720554
     18          6           0       -1.148737   -0.653597    3.080906
     19          6           0       -2.838296   -1.184008    1.254590
     20          6           0       -3.587548   -2.229804    2.052398
     21          6           0       -3.308579   -1.047941   -0.160180
     22          6           0       -4.623890   -0.659678   -0.463719
     23          6           0       -5.059106   -0.571388   -1.787996
     24          6           0       -4.190272   -0.888355   -2.836938
     25          6           0       -2.884104   -1.293697   -2.547642
     26          6           0       -2.447461   -1.373216   -1.222519
     27          1           0       -2.318017    4.678510   -0.417930
     28          1           0       -3.130501    3.291837   -1.201054
     29          1           0       -3.440355    3.654851    0.515373
     30          1           0       -0.120187    3.758089   -0.986066
     31          1           0       -0.679330    2.198976   -1.639101
     32          1           0        1.574947    1.916563   -0.652864
     33          1           0        1.036005    2.639145    0.867292
     34          1           0        2.202065   -1.681595   -1.510458
     35          1           0        4.653774   -1.665092   -2.004646
     36          1           0        5.299265    0.946014    1.353848
     37          1           0        2.851853    0.954261    1.815314
     38          1           0       -0.086304   -0.898573    2.964493
     39          1           0       -1.219860    0.275437    3.661936
     40          1           0       -1.599300   -1.456442    3.665514
     41          1           0       -3.319352   -2.242591    3.109572
     42          1           0       -4.668680   -2.060610    1.985728
     43          1           0       -3.403679   -3.231048    1.640606
     44          1           0       -5.305760   -0.402588    0.342522
     45          1           0       -6.077035   -0.255786   -2.001029
     46          1           0       -4.530627   -0.827358   -3.866961
     47          1           0       -2.205466   -1.557067   -3.355068
     48          1           0       -1.436718   -1.699304   -0.990711
 ---------------------------------------------------------------------

 SCF Done:  E(RB3LYP) =  -1513.10497970     A.U. after   18 cycles

 Excitation energies and oscillator strengths:

 Excited State   1:      Triplet-A      1.2909 eV  960.42 nm  f=0.0000  <S**2>=2.000
      96 -> 98         0.23525
      97 -> 98         0.65049
      97 ->100        -0.18436
      97 <- 98         0.18997
 This state for optimization and/or second-order correction.
 Total Energy, E(TD-HF/TD-DFT) =  -1513.05753858
 Copying the excited state density for this state as the 1-particle RhoCI density.

 Excited State   2:      Triplet-A      2.7615 eV  448.97 nm  f=0.0000  <S**2>=2.000
      92 -> 98         0.21977
      94 -> 98         0.12964
      96 -> 98         0.58586
      97 -> 98        -0.24089

 Excited State   3:      Singlet-A      2.8756 eV  431.15 nm  f=0.0346  <S**2>=0.000
      96 -> 98        -0.44328
      97 -> 98         0.53090

 Excited State   4:      Triplet-A      3.0695 eV  403.92 nm  f=0.0000  <S**2>=2.000
      92 -> 98        -0.22537
      93 -> 98         0.41163
      94 -> 98         0.23383
      95 -> 98        -0.34555
      96 -> 98         0.13038
      97 ->101         0.10983

 Excited State   5:      Singlet-A      3.2606 eV  380.25 nm  f=0.2056  <S**2>=0.000
      94 -> 98         0.11516
      95 -> 98        -0.10832
      96 -> 98         0.48443
      97 -> 98         0.42207
      97 ->100         0.21656

 Excited State   6:      Singlet-A      3.5559 eV  348.67 nm  f=0.0028  <S**2>=0.000
      97 -> 99         0.69858

 The electronic state is 1-A.
 Alpha  occ. eigenvalues -- -101.56858 -19.13358 -14.47961 -14.39346 -14.37190
 Alpha  occ. eigenvalues --  -10.27763 -10.25947 -10.25322 -10.24134 -10.23136
 Alpha  occ. eigenvalues --  -10.23049 -10.22994 -10.22865 -10.22762 -10.22201
 Alpha  occ. eigenvalues --  -10.22186 -10.19139 -10.18991 -10.18801 -10.18727
 Alpha  occ. eigenvalues --  -10.18668 -10.18611 -10.18453 -10.18013 -10.17428
 Alpha  occ. eigenvalues --  -10.17216  -9.48367  -7.24777  -7.23802  -7.23768
 Alpha  occ. eigenvalues --   -1.10518  -1.02668  -0.91609  -0.88759  -0.86921
 Alpha  occ. eigenvalues --   -0.85395  -0.84805  -0.80411  -0.79665  -0.78601
 Alpha  occ. eigenvalues --   -0.76264  -0.74570  -0.73797  -0.71349  -0.69637
 Alpha  occ. eigenvalues --   -0.67467  -0.66366  -0.65057  -0.64215  -0.60698
 Alpha  occ. eigenvalues --   -0.59692  -0.59169  -0.57131  -0.54465  -0.52657
 Alpha  occ. eigenvalues --   -0.51645  -0.51423  -0.51046  -0.50278  -0.48035
 Alpha  occ. eigenvalues --   -0.47857  -0.46887  -0.46395  -0.46087  -0.45144
 Alpha  occ. eigenvalues --   -0.44808  -0.43971  -0.43354  -0.42942  -0.42229
 Alpha  occ. eigenvalues --   -0.41555  -0.41317  -0.40898  -0.40622  -0.40213
 Alpha  occ. eigenvalues --   -0.39302  -0.39096  -0.38523  -0.38376  -0.37818
 Alpha  occ. eigenvalues --   -0.37169  -0.36161  -0.35518  -0.35214  -0.34855
 Alpha  occ. eigenvalues --   -0.33525  -0.33035  -0.32233  -0.29021  -0.28202
 Alpha  occ. eigenvalues --   -0.27571  -0.26021  -0.25531  -0.24663  -0.24516
 Alpha  occ. eigenvalues --   -0.21806  -0.19776
 Alpha virt. eigenvalues --   -0.07539  -0.04482  -0.03565  -0.01735  -0.01103
 Alpha virt. eigenvalues --   -0.00462  -0.00223   0.00392   0.00591   0.01067
 Alpha virt. eigenvalues --    0.01709   0.02101   0.02456   0.02531   0.03145

 Mulliken charges:
               1
     1  C   -0.280138
     2  N    0.182117
     3  C   -0.219760
     4  C   -0.572414
     5  C    1.535563
     6  N   -0.413324
     7  O    0.067490
     8  C   -0.628495
     9  C    0.558041
    10  C   -0.446599
    11  C    0.170115
    12  Cl   0.255010
    13  C   -0.311678
    14  C    0.287285
    15  N   -0.067382
    16  C   -1.366561
    17  C   -0.328677
    18  C   -0.763258
    19  C    0.252023
    20  C   -0.543596
    21  C    0.204898
    22  C    0.006679
    23  C   -0.109479
    24  C   -0.088562
    25  C   -0.116915
    26  C   -0.461346
    27  H    0.142582
    28  H    0.147660
    29  H    0.167307
    30  H    0.146069
    31  H    0.158042
    32  H    0.167767
    33  H    0.174850
    34  H    0.155208
    35  H    0.152243
    36  H    0.150053
    37  H    0.133660
    38  H    0.173071
    39  H    0.144714
    40  H    0.128745
    41  H    0.131996
    42  H    0.148785
    43  H    0.160295
    44  H    0.115686
    45  H    0.119256
    46  H    0.117824
    47  H    0.116866
    48  H    0.146287
 Sum of Mulliken charges =  -0.00000

 Dipole moment (field-independent basis, Debye):
    X=              1.1503    Y=              4.1631    Z=             -1.2990  Tot=              4.5102
 Quadrupole moment (field-independent basis, Debye-Ang):
   XX=           -165.7682   YY=           -158.3759   ZZ=           -155.4970
   XY=             -0.3683   XZ=              2.0288   YZ=              0.8399

 Normal termination of Gaussian 16 at Tue Oct  7 12:49:32 2025.
