 Gaussian 16, Revision C.02,
 Gaussian 16:  ES64L-G16RevC.02  7-Dec-2021

 ----------------------------------------------------------
 # td=(50-50,nstates=3) b3lyp/6-31+g(d,p) geom=connectivity
 ----------------------------------------------------------

 -------------------
 Title Card Required
 -------------------
 Symbolic Z-matrix:
 Charge =  0 Multiplicity = 1

                         Standard orientation:
 ---------------------------------------------------------------------
 Center     Atomic      Atomic             Coordinates (Angstroms)
 Number     Number       Type             X           Y           Z
 ---------------------------------------------------------------------
      1          6           0        7.300271   -0.436345    0.000239
      2          6           0        5.916080    0.134409    0.000257
      3          6           0        4.782031   -0.598213    0.000044
      4          6           0        3.435484   -0.070764    0.000007
      5          6           0        2.278027   -0.809114   -0.000220
      6          6           0        1.148080    0.105053   -0.000268
      7          6           0       -0.183226   -0.234719   -0.000350
      8          6           0       -0.747206   -1.559542   -0.000144
      9          6           0       -2.107518   -1.595007   -0.000064
     10          6           0       -2.718892   -0.288764   -0.000136
     11          6           0       -4.078733   -0.025433    0.000152
     12          6           0       -4.582237    1.307366    0.000202
     13          7           0       -4.969331    2.406910    0.000259
     14          6           0       -5.019551   -1.097277    0.000218
     15          7           0       -5.771616   -1.987777    0.000291
     16         16           0       -1.493254    0.970320   -0.000307
     17          6           0        1.704413    1.466907   -0.000086
     18          6           0        3.054251    1.366493    0.000111
     19          1           0        7.864784   -0.098110   -0.878586
     20          1           0        7.864418   -0.098884    0.879614
     21          1           0        7.288270   -1.530371   -0.000194
     22          1           0        5.846412    1.221510    0.000424
     23          1           0        4.865379   -1.685060   -0.000123
     24          1           0        2.215274   -1.889182   -0.000383
     25          1           0       -0.119569   -2.442478   -0.000140
     26          1           0       -2.706047   -2.498222    0.000344
     27          1           0        1.119655    2.377863   -0.000061
     28          1           0        3.752479    2.193583    0.000400
 ---------------------------------------------------------------------

 SCF Done:  E(RB3LYP) =  -1085.24895611     A.U. after   18 cycles

 Excitation energies and oscillator strengths:

 Excited State   1:      Triplet-A      0.8401 eV 1475.74 nm  f=0.0000  <S**2>=2.000
      64 -> 66        -0.15846
      65 -> 66         0.70764
      65 <- 66         0.20507
 This state for optimization and/or second-order correction.
 Total Energy, E(TD-HF/TD-DFT) =  -1085.21808121
 Copying the excited state density for this state as the 1-particle RhoCI density.

 Excited State   2:      Triplet-A      1.4360 eV  863.37 nm  f=0.0000  <S**2>=2.000
      64 -> 66         0.67797
      65 -> 66         0.12322
      65 -> 67         0.12021
      64 <- 66         0.10759

 Excited State   3:      Singlet-A      1.8906 eV  655.81 nm  f=0.1480  <S**2>=0.000
      64 -> 66         0.38815
      65 -> 66         0.58819

 Excited State   4:      Triplet-A      2.6659 eV  465.07 nm  f=0.0000  <S**2>=2.000
      61 -> 66        -0.14095
      62 -> 66        -0.11573
      63 -> 66         0.56876
      64 -> 67        -0.14621
      64 -> 69        -0.12603
      65 -> 67         0.27700
      65 -> 69        -0.12906

 Excited State   5:      Singlet-A      2.7754 eV  446.73 nm  f=1.0187  <S**2>=0.000
      62 -> 66         0.12235
      64 -> 66         0.58102
      65 -> 66        -0.39558
      65 <- 66         0.10269

 Excited State   6:      Singlet-A      3.4743 eV  356.87 nm  f=0.0747  <S**2>=0.000
      62 -> 66         0.25904
      63 -> 66         0.60567
      65 -> 67        -0.22736

 The electronic state is 1-A.
 Alpha  occ. eigenvalues --  -88.95043 -14.36252 -14.36138 -10.29669 -10.28651
 Alpha  occ. eigenvalues --  -10.27881 -10.25620 -10.25558 -10.25546 -10.25082
 Alpha  occ. eigenvalues --  -10.24864 -10.23030 -10.22550 -10.22253 -10.21819
 Alpha  occ. eigenvalues --  -10.21779 -10.21104 -10.20809  -8.00950  -5.97422
 Alpha  occ. eigenvalues --   -5.97053  -5.96546  -0.94522  -0.92669  -0.92238
 Alpha  occ. eigenvalues --   -0.89969  -0.84927  -0.82491  -0.79481  -0.77519
 Alpha  occ. eigenvalues --   -0.75306  -0.71949  -0.68989  -0.63133  -0.62721
 Alpha  occ. eigenvalues --   -0.60335  -0.59119  -0.56795  -0.55887  -0.54162
 Alpha  occ. eigenvalues --   -0.51120  -0.47400  -0.46010  -0.45511  -0.45162
 Alpha  occ. eigenvalues --   -0.44059  -0.43649  -0.42853  -0.41875  -0.40613
 Alpha  occ. eigenvalues --   -0.40196  -0.39480  -0.38904  -0.38812  -0.38119
 Alpha  occ. eigenvalues --   -0.37669  -0.36992  -0.36158  -0.35990  -0.35009
 Alpha  occ. eigenvalues --   -0.32957  -0.30688  -0.29293  -0.24979  -0.22746
 Alpha virt. eigenvalues --   -0.14435  -0.06758  -0.03422  -0.03297  -0.01316
 Alpha virt. eigenvalues --   -0.00410  -0.00375  -0.00130   0.00202   0.00934
 Alpha virt. eigenvalues --    0.01412   0.01698   0.02280   0.02846   0.02872

 Mulliken charges:
               1
     1  C   -0.821442
     2  C    0.122631
     3  C    0.375101
     4  C   -0.335939
     5  C   -0.893368
     6  C    0.437379
     7  C   -0.201996
     8  C    0.130098
     9  C    0.449768
    10  C    0.060278
    11  C    1.271594
    12  C   -0.395878
    13  N   -0.458611
    14  C   -0.252691
    15  N   -0.500308
    16  S   -0.428168
    17  C   -0.183238
    18  C    0.190223
    19  H    0.165222
    20  H    0.165229
    21  H    0.155227
    22  H    0.122795
    23  H    0.117962
    24  H    0.119750
    25  H    0.149920
    26  H    0.173718
    27  H    0.134690
    28  H    0.130053
 Sum of Mulliken charges =  -0.00000

 Dipole moment (field-independent basis, Debye):
    X=              9.6154    Y=             -1.8078    Z=             -0.0001  Tot=              9.7839
 Quadrupole moment (field-independent basis, Debye-Ang):
   XX=           -135.3342   YY=           -115.7789   ZZ=           -116.7293
   XY=              3.1723   XZ=              0.0042   YZ=              0.0005

 Normal termination of Gaussian 16 at Mon Aug 25 14:31:05 2025.
