 Gaussian 16, Revision C.02,
 Gaussian 16:  ES64L-G16RevC.02  7-Dec-2021

 ----------------------------------------------------------
 # td=(50-50,nstates=3) b3lyp/6-31+g(d,p) geom=connectivity
 ----------------------------------------------------------

 -------------------
 Title Card Required
 -------------------
 Symbolic Z-matrix:
 Charge =  0 Multiplicity = 1

                         Standard orientation:
 ---------------------------------------------------------------------
 Center     Atomic      Atomic             Coordinates (Angstroms)
 Number     Number       Type             X           Y           Z
 ---------------------------------------------------------------------
      1          6           0        1.047545    3.026484    0.467492
      2          6           0        0.083419    1.925686    0.167563
      3          6           0        0.424080    0.745120   -0.513713
      4          6           0        1.783395    0.591308   -1.190595
      5          8           0        1.868587    1.164359   -2.268061
      6          6           0        2.948638   -0.092494   -0.560677
      7          6           0        4.176735    0.142030   -1.213707
      8          6           0        5.365143   -0.399496   -0.742065
      9          6           0        5.340309   -1.198796    0.403114
     10          6           0        4.134292   -1.451884    1.056904
     11          6           0        2.925221   -0.912178    0.599457
     12          6           0        1.650956   -1.270808    1.339660
     13          8           0        1.954767   -2.125083    2.442732
     14          7           0       -0.476027   -0.226009   -0.773993
     15          8           0       -0.131498   -1.309432   -1.384360
     16          6           0       -1.794103   -0.047684   -0.345429
     17          6           0       -2.751860   -1.042657   -0.612108
     18          6           0       -4.045481   -0.840298   -0.174958
     19         17           0       -5.263711   -2.056235   -0.489347
     20          6           0       -4.418662    0.330441    0.523896
     21          6           0       -3.477188    1.306023    0.783270
     22          6           0       -2.150352    1.126820    0.349168
     23          7           0       -1.189795    2.111244    0.608521
     24          8           0       -1.520892    3.173947    1.248763
     25          1           0        2.050933    2.785207    0.118687
     26          1           0        0.712506    3.953648   -0.009838
     27          1           0        1.065616    3.222377    1.544603
     28          1           0        4.166255    0.763925   -2.101778
     29          1           0        6.298340   -0.201277   -1.260097
     30          1           0        6.258948   -1.631868    0.788782
     31          1           0        4.114237   -2.084564    1.935058
     32          1           0        1.164413   -0.358426    1.711882
     33          1           0        0.968987   -1.773433    0.642586
     34          1           0        1.133247   -2.518064    2.760164
     35          1           0       -2.443505   -1.927904   -1.153033
     36          1           0       -5.444684    0.455630    0.850610
     37          1           0       -3.721679    2.218070    1.313350
 ---------------------------------------------------------------------

 SCF Done:  E(RB3LYP) =  -1526.16623124     A.U. after   18 cycles

 Excitation energies and oscillator strengths:

 Excited State   1:      Triplet-A      1.0548 eV 1175.43 nm  f=0.0000  <S**2>=2.000
      89 -> 90         0.73255
      89 -> 93        -0.16205
      89 <- 90         0.26510
 This state for optimization and/or second-order correction.
 Total Energy, E(TD-HF/TD-DFT) =  -1526.12746823
 Copying the excited state density for this state as the 1-particle RhoCI density.

 Excited State   2:      Triplet-A      2.9715 eV  417.24 nm  f=0.0000  <S**2>=2.000
      83 -> 91         0.10434
      86 -> 91        -0.15165
      87 -> 91        -0.11834
      89 -> 91         0.62169
      89 -> 92         0.16379

 Excited State   3:      Singlet-A      3.0317 eV  408.96 nm  f=0.0232  <S**2>=0.000
      89 -> 90         0.40385
      89 -> 91         0.56533

 Excited State   4:      Triplet-A      3.0772 eV  402.91 nm  f=0.0000  <S**2>=2.000
      87 -> 90         0.12616
      87 -> 91         0.59402
      88 -> 91        -0.19900
      88 -> 94         0.18323

 Excited State   5:      Singlet-A      3.1279 eV  396.38 nm  f=0.0836  <S**2>=0.000
      89 -> 90         0.54771
      89 -> 91        -0.41292
      89 -> 93         0.15153

 Excited State   6:      Singlet-A      3.4960 eV  354.64 nm  f=0.0007  <S**2>=0.000
      83 -> 90         0.20580
      85 -> 90         0.16055
      86 -> 90         0.48564
      87 -> 90         0.18979
      89 -> 92         0.36940

 The electronic state is 1-A.
 Alpha  occ. eigenvalues -- -101.58050 -19.17800 -19.17472 -19.16152 -19.16089
 Alpha  occ. eigenvalues --  -14.51311 -14.51174 -10.31783 -10.29533 -10.28807
 Alpha  occ. eigenvalues --  -10.28717 -10.28525 -10.28492 -10.25902 -10.24635
 Alpha  occ. eigenvalues --  -10.24338 -10.24315 -10.23222 -10.22649 -10.21683
 Alpha  occ. eigenvalues --  -10.21659 -10.21394 -10.21044 -10.20591  -9.49544
 Alpha  occ. eigenvalues --   -7.25966  -7.24981  -7.24933  -1.14758  -1.13524
 Alpha  occ. eigenvalues --   -1.07382  -1.04659  -0.95754  -0.92534  -0.88307
 Alpha  occ. eigenvalues --   -0.87936  -0.87142  -0.82196  -0.81022  -0.79255
 Alpha  occ. eigenvalues --   -0.77727  -0.74865  -0.73222  -0.70407  -0.67211
 Alpha  occ. eigenvalues --   -0.65828  -0.64547  -0.62634  -0.61126  -0.59849
 Alpha  occ. eigenvalues --   -0.56811  -0.54938  -0.53873  -0.53032  -0.52116
 Alpha  occ. eigenvalues --   -0.50776  -0.49614  -0.49520  -0.48696  -0.48242
 Alpha  occ. eigenvalues --   -0.48028  -0.47863  -0.46834  -0.45326  -0.45039
 Alpha  occ. eigenvalues --   -0.44501  -0.44146  -0.43725  -0.43015  -0.42719
 Alpha  occ. eigenvalues --   -0.41992  -0.41159  -0.40503  -0.38882  -0.37385
 Alpha  occ. eigenvalues --   -0.36384  -0.36257  -0.35399  -0.34182  -0.31872
 Alpha  occ. eigenvalues --   -0.30610  -0.30067  -0.29286  -0.28894  -0.28688
 Alpha  occ. eigenvalues --   -0.28048  -0.27306  -0.26629  -0.22917
 Alpha virt. eigenvalues --   -0.11285  -0.08949  -0.06999  -0.03664  -0.02635
 Alpha virt. eigenvalues --   -0.01918  -0.00970   0.00081   0.00344   0.00723
 Alpha virt. eigenvalues --    0.00823   0.01520   0.02172   0.02504   0.02755

 Mulliken charges:
               1
     1  C   -0.640972
     2  C    0.316977
     3  C    0.142068
     4  C    0.091895
     5  O   -0.344145
     6  C   -0.660831
     7  C    0.126074
     8  C   -0.335266
     9  C   -0.154259
    10  C    0.302870
    11  C   -0.275868
    12  C    0.241683
    13  O   -0.532031
    14  N   -0.404417
    15  O    0.106584
    16  C    0.273067
    17  C   -0.412977
    18  C    0.244161
    19  Cl   0.283970
    20  C   -0.031908
    21  C   -0.640557
    22  C    0.273583
    23  N   -0.424487
    24  O    0.084465
    25  H    0.161643
    26  H    0.192863
    27  H    0.190872
    28  H    0.161537
    29  H    0.134634
    30  H    0.134701
    31  H    0.163924
    32  H    0.141344
    33  H    0.182651
    34  H    0.368842
    35  H    0.191860
    36  H    0.159504
    37  H    0.185949
 Sum of Mulliken charges =  -0.00000

 Dipole moment (field-independent basis, Debye):
    X=             -0.1979    Y=             -0.3444    Z=              2.6040  Tot=              2.6341
 Quadrupole moment (field-independent basis, Debye-Ang):
   XX=           -126.4385   YY=           -153.6353   ZZ=           -155.7377
   XY=              2.2198   XZ=             -1.7506   YZ=             -5.8075

 Normal termination of Gaussian 16 at Tue Oct  7 12:50:30 2025.
