 Gaussian 16, Revision C.02,
 Gaussian 16:  ES64L-G16RevC.02  7-Dec-2021

 ----------------------------------------------------------
 # td=(50-50,nstates=3) b3lyp/6-31+g(d,p) geom=connectivity
 ----------------------------------------------------------

 -------------------
 Title Card Required
 -------------------
 Symbolic Z-matrix:
 Charge =  0 Multiplicity = 1

                         Standard orientation:
 ---------------------------------------------------------------------
 Center     Atomic      Atomic             Coordinates (Angstroms)
 Number     Number       Type             X           Y           Z
 ---------------------------------------------------------------------
      1          6           0        5.924511    2.129476    0.286563
      2          6           0        5.260697    1.033131   -0.554565
      3          6           0        4.204449    0.236154    0.222285
      4          6           0        3.541002   -0.864903   -0.624603
      5          6           0        2.537356   -1.678347    0.165648
      6          6           0        1.263489   -1.774809   -0.105499
      7          6           0       -0.018424   -1.883631   -0.390772
      8          6           0       -1.065046   -0.988502    0.103808
      9          7           0       -0.855657    0.058655    0.876329
     10          8           0       -2.145089    0.577364    1.077345
     11          6           0       -2.988853   -0.214475    0.396246
     12          6           0       -4.440589    0.100271    0.427211
     13         17           0       -4.867808    1.422440   -0.745770
     14          7           0       -2.396004   -1.193187   -0.219763
     15          1           0        6.671148    2.680791   -0.295025
     16          1           0        5.184658    2.852293    0.649668
     17          1           0        6.430793    1.705581    1.161887
     18          1           0        6.029639    0.344543   -0.931776
     19          1           0        4.793276    1.484629   -1.440408
     20          1           0        3.428436    0.916434    0.596440
     21          1           0        4.670005   -0.218441    1.108478
     22          1           0        4.317292   -1.544321   -1.004897
     23          1           0        3.048469   -0.422499   -1.497329
     24          1           0        2.914549   -2.205365    1.044957
     25          1           0       -0.374295   -2.682401   -1.038337
     26          1           0       -5.005825   -0.783289    0.137253
     27          1           0       -4.744633    0.447190    1.414528
 ---------------------------------------------------------------------

 SCF Done:  E(RB3LYP) =  -1033.76877155     A.U. after   15 cycles

 Excitation energies and oscillator strengths:

 Excited State   1:      Triplet-A      3.0967 eV  400.38 nm  f=0.0000  <S**2>=2.000
      56 -> 57         0.60475
      56 -> 58         0.31025
 This state for optimization and/or second-order correction.
 Total Energy, E(TD-HF/TD-DFT) =  -1033.65496993
 Copying the excited state density for this state as the 1-particle RhoCI density.

 Excited State   2:      Triplet-A      4.2334 eV  292.87 nm  f=0.0000  <S**2>=2.000
      51 -> 57        -0.15371
      53 -> 57         0.24380
      54 -> 57        -0.10625
      55 -> 57        -0.11159
      55 -> 59         0.43060
      56 -> 57        -0.16498
      56 -> 58         0.31680

 Excited State   3:      Triplet-A      4.2751 eV  290.01 nm  f=0.0000  <S**2>=2.000
      55 -> 57         0.58417
      55 -> 58         0.34280
      56 -> 58         0.10186

 Excited State   4:      Singlet-A      4.5382 eV  273.20 nm  f=0.0006  <S**2>=0.000
      55 -> 57         0.64236
      55 -> 58         0.27490

 Excited State   5:      Singlet-A      4.8050 eV  258.03 nm  f=0.0253  <S**2>=0.000
      56 -> 57         0.67241
      56 -> 58        -0.17495

 Excited State   6:      Singlet-A      5.3740 eV  230.71 nm  f=0.0035  <S**2>=0.000
      52 -> 57        -0.28552
      53 -> 57         0.23675
      54 -> 57         0.55534
      55 -> 58        -0.19024

 The electronic state is 1-A.
 Alpha  occ. eigenvalues -- -101.56020 -19.26906 -14.40539 -14.36614 -10.31846
 Alpha  occ. eigenvalues --  -10.28551 -10.27985 -10.22593 -10.22376 -10.21778
 Alpha  occ. eigenvalues --  -10.20572 -10.19209 -10.19030 -10.18095  -9.47552
 Alpha  occ. eigenvalues --   -7.24007  -7.22953  -7.22928  -1.18463  -0.96139
 Alpha  occ. eigenvalues --   -0.90764  -0.86461  -0.83072  -0.79965  -0.76320
 Alpha  occ. eigenvalues --   -0.73710  -0.71121  -0.65223  -0.63553  -0.62014
 Alpha  occ. eigenvalues --   -0.58750  -0.54834  -0.51764  -0.51293  -0.48698
 Alpha  occ. eigenvalues --   -0.48576  -0.47135  -0.45772  -0.44311  -0.44091
 Alpha  occ. eigenvalues --   -0.43608  -0.43158  -0.41230  -0.38582  -0.36835
 Alpha  occ. eigenvalues --   -0.36087  -0.35902  -0.34930  -0.34005  -0.33323
 Alpha  occ. eigenvalues --   -0.32692  -0.31996  -0.31624  -0.31446  -0.27311
 Alpha  occ. eigenvalues --   -0.26309
 Alpha virt. eigenvalues --   -0.07121  -0.03902  -0.00658  -0.00304   0.00554
 Alpha virt. eigenvalues --    0.01638   0.02081   0.02712   0.02773   0.03820
 Alpha virt. eigenvalues --    0.04281   0.04385   0.04803   0.05468   0.05643

 Mulliken charges:
               1
     1  C   -0.634445
     2  C   -0.146838
     3  C   -0.288405
     4  C   -0.407525
     5  C    0.130161
     6  C    0.068103
     7  C    0.324001
     8  C    0.098661
     9  N   -0.549400
    10  O    0.131025
    11  C   -0.125672
    12  C   -0.463304
    13  Cl   0.057594
    14  N   -0.255225
    15  H    0.145612
    16  H    0.148996
    17  H    0.145272
    18  H    0.136202
    19  H    0.139684
    20  H    0.155517
    21  H    0.135973
    22  H    0.152755
    23  H    0.145736
    24  H    0.150710
    25  H    0.161189
    26  H    0.224215
    27  H    0.219409
 Sum of Mulliken charges =  -0.00000

 Dipole moment (field-independent basis, Debye):
    X=              1.0573    Y=             -1.5310    Z=              0.5816  Tot=              1.9494
 Quadrupole moment (field-independent basis, Debye-Ang):
   XX=            -78.0943   YY=            -93.4852   ZZ=            -92.5790
   XY=              2.0547   XZ=             -7.0882   YZ=             -1.6322

 Normal termination of Gaussian 16 at Thu Oct  2 12:33:25 2025.
