 Gaussian 16, Revision C.02,
 Gaussian 16:  ES64L-G16RevC.02  7-Dec-2021

 ----------------------------------------------------------
 # td=(50-50,nstates=3) b3lyp/6-31+g(d,p) geom=connectivity
 ----------------------------------------------------------

 -------------------
 Title Card Required
 -------------------
 Symbolic Z-matrix:
 Charge =  0 Multiplicity = 1

                         Standard orientation:
 ---------------------------------------------------------------------
 Center     Atomic      Atomic             Coordinates (Angstroms)
 Number     Number       Type             X           Y           Z
 ---------------------------------------------------------------------
      1          6           0       -5.213098   -1.562291    1.597188
      2         14           0       -4.364127   -2.107051    0.000026
      3          6           0       -4.271654   -3.991178   -0.093445
      4          6           0       -5.272497   -1.410987   -1.502847
      5          6           0       -2.641742   -1.438898   -0.000558
      6          6           0       -1.501729   -0.996630   -0.000408
      7          6           0       -0.176086   -0.451702   -0.000236
      8          6           0       -0.113322    0.976746   -0.000140
      9          6           0       -0.143564    2.199645   -0.000086
     10         14           0       -0.217256    4.047667   -0.000117
     11          6           0        1.550413    4.715222    0.001708
     12          6           0       -1.134052    4.600247   -1.555186
     13          6           0       -1.137244    4.600334    1.553030
     14          6           0        0.893796   -1.307386   -0.000212
     15          6           0        2.330050   -1.050646    0.000041
     16          6           0        2.929427    0.228612    0.000637
     17          6           0        4.316502    0.367989    0.000890
     18          6           0        5.150340   -0.749704    0.000565
     19          6           0        4.572656   -2.031365   -0.000022
     20          6           0        5.410364   -3.197987   -0.000345
     21          7           0        6.091375   -4.141735   -0.000599
     22          6           0        3.179458   -2.175429   -0.000280
     23          1           0       -5.247714   -0.470182    1.673596
     24          1           0       -6.243088   -1.936634    1.635035
     25          1           0       -4.682898   -1.943003    2.476751
     26          1           0       -3.760387   -4.317668   -1.005522
     27          1           0       -5.277089   -4.428624   -0.095761
     28          1           0       -3.727121   -4.403724    0.762817
     29          1           0       -6.303955   -1.781574   -1.537419
     30          1           0       -5.307824   -0.316681   -1.471224
     31          1           0       -4.777161   -1.703381   -2.434951
     32          1           0        1.547985    5.811643    0.001780
     33          1           0        2.100468    4.382690    0.888898
     34          1           0        2.102208    4.382802   -0.884443
     35          1           0       -1.204713    5.693798   -1.593737
     36          1           0       -2.151203    4.194848   -1.578386
     37          1           0       -0.618228    4.262853   -2.460529
     38          1           0       -2.154527    4.195143    1.574021
     39          1           0       -0.623462    4.262898    2.459512
     40          1           0       -1.207785    5.693905    1.591352
     41          1           0        0.628685   -2.361411   -0.000402
     42          1           0        2.305011    1.111938    0.000919
     43          1           0        4.753397    1.361869    0.001357
     44          1           0        6.229644   -0.642540    0.000769
     45          1           0        2.751392   -3.172995   -0.000733
 ---------------------------------------------------------------------

 SCF Done:  E(RB3LYP) =  -1371.64507973     A.U. after   16 cycles

 Excitation energies and oscillator strengths:

 Excited State   1:      Triplet-A      1.9382 eV  639.68 nm  f=0.0000  <S**2>=2.000
      86 -> 87         0.69016
      86 <- 87         0.12566
 This state for optimization and/or second-order correction.
 Total Energy, E(TD-HF/TD-DFT) =  -1371.57385153
 Copying the excited state density for this state as the 1-particle RhoCI density.

 Excited State   2:      Triplet-A      3.4064 eV  363.97 nm  f=0.0000  <S**2>=2.000
      81 -> 87        -0.20826
      84 -> 87        -0.34439
      84 -> 88         0.30563
      86 -> 88         0.41782
      86 -> 91        -0.15802

 Excited State   3:      Singlet-A      3.5625 eV  348.02 nm  f=0.6995  <S**2>=0.000
      86 -> 87         0.69510
      86 -> 88        -0.10856

 Excited State   4:      Triplet-A      3.6502 eV  339.66 nm  f=0.0000  <S**2>=2.000
      81 -> 87         0.14889
      81 -> 88         0.15732
      84 -> 87         0.11340
      84 -> 88        -0.35211
      86 -> 88         0.49840
      86 -> 91         0.15450

 Excited State   5:      Singlet-A      3.9159 eV  316.62 nm  f=0.0000  <S**2>=0.000
      85 -> 87         0.69383

 Excited State   6:      Singlet-A      4.0091 eV  309.26 nm  f=0.0885  <S**2>=0.000
      84 -> 87         0.33486
      86 -> 87         0.11083
      86 -> 88         0.60384

 The electronic state is 1-A.
 Alpha  occ. eigenvalues --  -66.14919 -66.14328 -14.34973 -10.25658 -10.25309
 Alpha  occ. eigenvalues --  -10.24132 -10.23660 -10.23180 -10.23092 -10.23077
 Alpha  occ. eigenvalues --  -10.22359 -10.22193 -10.21185 -10.20559 -10.18830
 Alpha  occ. eigenvalues --  -10.18096 -10.17858 -10.17614 -10.17613 -10.17189
 Alpha  occ. eigenvalues --  -10.17166 -10.17165  -5.29197  -5.28610  -3.65203
 Alpha  occ. eigenvalues --   -3.65025  -3.65017  -3.64611  -3.64438  -3.64437
 Alpha  occ. eigenvalues --   -0.91983  -0.89362  -0.85372  -0.79937  -0.79002
 Alpha  occ. eigenvalues --   -0.75638  -0.73747  -0.72408  -0.71759  -0.69212
 Alpha  occ. eigenvalues --   -0.69042  -0.68613  -0.68587  -0.67393  -0.65838
 Alpha  occ. eigenvalues --   -0.62386  -0.57445  -0.55457  -0.51913  -0.51539
 Alpha  occ. eigenvalues --   -0.50666  -0.49616  -0.46502  -0.46003  -0.43395
 Alpha  occ. eigenvalues --   -0.42830  -0.42401  -0.42143  -0.42014  -0.41905
 Alpha  occ. eigenvalues --   -0.41483  -0.41453  -0.40570  -0.40399  -0.39952
 Alpha  occ. eigenvalues --   -0.39948  -0.39657  -0.39349  -0.38826  -0.38568
 Alpha  occ. eigenvalues --   -0.38291  -0.36889  -0.36491  -0.35921  -0.35677
 Alpha  occ. eigenvalues --   -0.34262  -0.32554  -0.32399  -0.31995  -0.31770
 Alpha  occ. eigenvalues --   -0.30178  -0.29011  -0.28334  -0.27857  -0.27205
 Alpha  occ. eigenvalues --   -0.23114
 Alpha virt. eigenvalues --   -0.09439  -0.06018  -0.01922  -0.01804  -0.01785
 Alpha virt. eigenvalues --   -0.00998   0.00013   0.00572   0.00668   0.01265
 Alpha virt. eigenvalues --    0.01614   0.01763   0.02081   0.02267   0.02948

 Mulliken charges:
               1
     1  C   -0.674097
     2  Si   1.200926
     3  C   -0.677534
     4  C   -0.674105
     5  C   -0.917809
     6  C    0.366870
     7  C   -0.260873
     8  C    0.357151
     9  C   -0.949955
    10  Si   1.192534
    11  C   -0.707490
    12  C   -0.658776
    13  C   -0.658983
    14  C   -0.019230
    15  C   -0.055367
    16  C    0.153163
    17  C   -0.248048
    18  C   -0.287184
    19  C    0.247682
    20  C   -0.104112
    21  N   -0.529859
    22  C    0.217335
    23  H    0.166709
    24  H    0.161190
    25  H    0.166326
    26  H    0.166568
    27  H    0.162181
    28  H    0.166426
    29  H    0.161153
    30  H    0.166713
    31  H    0.166455
    32  H    0.165436
    33  H    0.165476
    34  H    0.165453
    35  H    0.162353
    36  H    0.168977
    37  H    0.167275
    38  H    0.168955
    39  H    0.167291
    40  H    0.162353
    41  H    0.133733
    42  H    0.141433
    43  H    0.138922
    44  H    0.150577
    45  H    0.145803
 Sum of Mulliken charges =  -0.00000

 Dipole moment (field-independent basis, Debye):
    X=             -3.3401    Y=              4.4567    Z=              0.0013  Tot=              5.5694
 Quadrupole moment (field-independent basis, Debye-Ang):
   XX=           -161.1448   YY=           -152.2444   ZZ=           -151.9865
   XY=             30.8977   XZ=              0.0077   YZ=             -0.0023

 Normal termination of Gaussian 16 at Mon Aug 25 14:33:06 2025.
