 Gaussian 16, Revision C.02,
 Gaussian 16:  ES64L-G16RevC.02  7-Dec-2021

 ----------------------------------------------------------
 # td=(50-50,nstates=3) b3lyp/6-31+g(d,p) geom=connectivity
 ----------------------------------------------------------

 -------------------
 Title Card Required
 -------------------
 Symbolic Z-matrix:
 Charge =  0 Multiplicity = 1

                         Standard orientation:
 ---------------------------------------------------------------------
 Center     Atomic      Atomic             Coordinates (Angstroms)
 Number     Number       Type             X           Y           Z
 ---------------------------------------------------------------------
      1          6           0       -4.196220   -1.889339   -1.150787
      2          6           0       -3.121267   -0.891234   -0.794752
      3          6           0       -3.231796    0.455306   -1.158870
      4          6           0       -2.249165    1.374279   -0.791049
      5          6           0       -1.144235    0.953447   -0.050882
      6         16           0        0.028635    2.235165    0.444328
      7          8           0       -0.353078    3.485904   -0.230673
      8          8           0        0.210915    2.182740    1.906414
      9          6           0       -0.995165   -0.397370    0.324367
     10          6           0        0.263634   -0.889773    1.056524
     11          6           0       -0.003041   -2.086141    1.870614
     12          7           0       -0.188628   -3.049481    2.492017
     13          6           0        1.386845   -1.190492    0.068768
     14          7           0        2.318904   -0.316463   -0.071600
     15          7           0        3.296474   -0.449735   -0.999302
     16          6           0        4.501550    0.302695   -0.659520
     17          6           0        3.494264   -1.732052   -1.660072
     18          6           0       -1.993273   -1.294791   -0.062616
     19          1           0       -4.803978   -1.539338   -1.989691
     20          1           0       -3.768798   -2.860777   -1.417442
     21          1           0       -4.868363   -2.052515   -0.299415
     22          1           0       -4.091193    0.792717   -1.731335
     23          1           0       -2.329424    2.420103   -1.067729
     24          1           0        1.193322    1.782309   -0.110155
     25          1           0        0.612332   -0.107246    1.739038
     26          1           0        1.307927   -2.113748   -0.506163
     27          1           0        4.203006    1.256142   -0.222201
     28          1           0        5.135237   -0.232565    0.064401
     29          1           0        5.079242    0.489367   -1.568546
     30          1           0        2.613071   -1.998215   -2.252488
     31          1           0        4.344031   -1.644202   -2.338679
     32          1           0        3.693570   -2.542949   -0.939662
     33          1           0       -1.900886   -2.338314    0.226751
 ---------------------------------------------------------------------

 SCF Done:  E(RB3LYP) =  -1179.11107529     A.U. after   17 cycles

 Excitation energies and oscillator strengths:

 Excited State   1:      Triplet-A      3.2048 eV  386.87 nm  f=0.0000  <S**2>=2.000
      70 -> 71         0.34915
      70 -> 72         0.37576
      70 -> 73         0.43971
 This state for optimization and/or second-order correction.
 Total Energy, E(TD-HF/TD-DFT) =  -1178.99330153
 Copying the excited state density for this state as the 1-particle RhoCI density.

 Excited State   2:      Triplet-A      3.5797 eV  346.36 nm  f=0.0000  <S**2>=2.000
      68 -> 72        -0.32138
      68 -> 73         0.14580
      69 -> 71         0.52722
      69 -> 72        -0.10120
      70 -> 71         0.12802
      70 -> 73        -0.17727

 Excited State   3:      Triplet-A      4.2348 eV  292.77 nm  f=0.0000  <S**2>=2.000
      68 -> 71        -0.28866
      68 -> 72         0.22440
      69 -> 72         0.11412
      70 -> 71         0.50541
      70 -> 72        -0.22236
      70 -> 73        -0.16656

 Excited State   4:      Singlet-A      4.2985 eV  288.44 nm  f=0.0475  <S**2>=0.000
      70 -> 71         0.69801

 Excited State   5:      Singlet-A      4.7378 eV  261.69 nm  f=0.0785  <S**2>=0.000
      68 -> 71         0.10388
      70 -> 72         0.66633
      70 -> 73        -0.17241

 Excited State   6:      Singlet-A      5.0832 eV  243.91 nm  f=0.0634  <S**2>=0.000
      68 -> 71         0.53917
      69 -> 72         0.36874
      69 -> 73        -0.11869
      70 -> 72        -0.16275
      70 -> 73        -0.14115

 The electronic state is 1-A.
 Alpha  occ. eigenvalues --  -89.11059 -19.16086 -19.15926 -14.41072 -14.40194
 Alpha  occ. eigenvalues --  -14.35467 -10.26575 -10.25366 -10.25160 -10.24686
 Alpha  occ. eigenvalues --  -10.24655 -10.24385 -10.23656 -10.23623 -10.22907
 Alpha  occ. eigenvalues --  -10.22250 -10.22109 -10.20868  -8.13958  -6.10395
 Alpha  occ. eigenvalues --   -6.10326  -6.10272  -1.11301  -1.04312  -1.01239
 Alpha  occ. eigenvalues --   -0.92692  -0.90251  -0.88136  -0.82862  -0.80882
 Alpha  occ. eigenvalues --   -0.76134  -0.75218  -0.73967  -0.69227  -0.68178
 Alpha  occ. eigenvalues --   -0.64300  -0.61010  -0.59037  -0.56449  -0.55850
 Alpha  occ. eigenvalues --   -0.53639  -0.51220  -0.50470  -0.49995  -0.49412
 Alpha  occ. eigenvalues --   -0.47416  -0.46510  -0.46070  -0.45693  -0.45202
 Alpha  occ. eigenvalues --   -0.44329  -0.43199  -0.42787  -0.41215  -0.40827
 Alpha  occ. eigenvalues --   -0.39616  -0.38754  -0.38501  -0.38002  -0.37070
 Alpha  occ. eigenvalues --   -0.34905  -0.34709  -0.33987  -0.33418  -0.31973
 Alpha  occ. eigenvalues --   -0.31523  -0.30052  -0.28407  -0.27979  -0.24315
 Alpha virt. eigenvalues --   -0.06300  -0.04850  -0.03361  -0.01366  -0.00449
 Alpha virt. eigenvalues --    0.00037   0.00935   0.01362   0.01611   0.01903
 Alpha virt. eigenvalues --    0.02505   0.02852   0.03126   0.03271   0.03789

 Mulliken charges:
               1
     1  C   -0.482381
     2  C    0.009291
     3  C   -0.347312
     4  C    0.344774
     5  C   -1.123268
     6  S    1.553400
     7  O   -0.527352
     8  O   -0.484652
     9  C    0.487852
    10  C   -0.059119
    11  C    0.016700
    12  N   -0.456118
    13  C   -0.689901
    14  N    0.007747
    15  N    0.093464
    16  C   -0.318488
    17  C   -0.331268
    18  C    0.026499
    19  H    0.156784
    20  H    0.163207
    21  H    0.179494
    22  H    0.133368
    23  H    0.179955
    24  H    0.039405
    25  H    0.227873
    26  H    0.128891
    27  H    0.163818
    28  H    0.148240
    29  H    0.150900
    30  H    0.151043
    31  H    0.157020
    32  H    0.159466
    33  H    0.140668
 Sum of Mulliken charges =  -0.00000

 Dipole moment (field-independent basis, Debye):
    X=              1.2876    Y=             -3.0219    Z=             -6.1326  Tot=              6.9569
 Quadrupole moment (field-independent basis, Debye-Ang):
   XX=            -86.0436   YY=           -136.5381   ZZ=           -125.9707
   XY=             -0.1296   XZ=             -0.6097   YZ=              8.0569

 Normal termination of Gaussian 16 at Mon Aug 25 14:27:50 2025.
