 Gaussian 16, Revision C.02,
 Gaussian 16:  ES64L-G16RevC.02  7-Dec-2021

 ----------------------------------------------------------
 # td=(50-50,nstates=3) b3lyp/6-31+g(d,p) geom=connectivity
 ----------------------------------------------------------

 -------------------
 Title Card Required
 -------------------
 Symbolic Z-matrix:
 Charge =  0 Multiplicity = 1

                         Standard orientation:
 ---------------------------------------------------------------------
 Center     Atomic      Atomic             Coordinates (Angstroms)
 Number     Number       Type             X           Y           Z
 ---------------------------------------------------------------------
      1          6           0        3.884664    3.075728    1.067571
      2          6           0        3.237773    2.568892   -0.234209
      3          6           0        2.953092    1.082446   -0.228789
      4          6           0        4.026386    0.132907   -0.284955
      5          6           0        3.770032   -1.213255   -0.222556
      6          6           0        2.439830   -1.686898   -0.119495
      7          6           0        1.857227   -2.950858    0.001397
      8          6           0        0.466834   -2.763418    0.076260
      9          6           0        0.178600   -1.398961   -0.009424
     10          6           0       -1.133190   -0.741013   -0.005727
     11          6           0       -1.477351    0.272132   -0.922307
     12          6           0       -2.748169    0.846786   -0.926579
     13          6           0       -3.703684    0.401251   -0.012977
     14         17           0       -5.308805    1.121440   -0.013446
     15          6           0       -3.401038   -0.609597    0.899469
     16          6           0       -2.122659   -1.166246    0.901925
     17          7           0        1.394413   -0.735976   -0.123100
     18          6           0        1.668230    0.619774   -0.146614
     19          1           0        4.085852    4.150815    1.007360
     20          1           0        3.227395    2.898802    1.925454
     21          1           0        4.834143    2.567330    1.266000
     22          1           0        3.899364    2.803602   -1.078811
     23          1           0        2.305150    3.116839   -0.412503
     24          1           0        5.048419    0.490083   -0.370037
     25          1           0        4.574099   -1.941889   -0.246541
     26          1           0        2.393646   -3.888806    0.015274
     27          1           0       -0.284022   -3.539033    0.145423
     28          1           0       -0.757329    0.594542   -1.668002
     29          1           0       -2.999741    1.620915   -1.643535
     30          1           0       -4.150303   -0.946818    1.607546
     31          1           0       -1.879833   -1.935822    1.628107
     32          1           0        0.812501    1.278776   -0.083377
 ---------------------------------------------------------------------

 SCF Done:  E(RB3LYP) =  -1133.12818012     A.U. after   16 cycles

 Excitation energies and oscillator strengths:

 Excited State   1:      Triplet-A      2.4510 eV  505.84 nm  f=0.0000  <S**2>=2.000
      66 -> 69         0.13772
      67 -> 68         0.61944
      67 -> 69        -0.23162
      67 -> 70         0.11434
 This state for optimization and/or second-order correction.
 Total Energy, E(TD-HF/TD-DFT) =  -1133.03810616
 Copying the excited state density for this state as the 1-particle RhoCI density.

 Excited State   2:      Triplet-A      2.9813 eV  415.88 nm  f=0.0000  <S**2>=2.000
      64 -> 70         0.11874
      65 -> 68        -0.11588
      66 -> 68         0.16197
      67 -> 68         0.23777
      67 -> 69         0.56955
      67 -> 70        -0.18385

 Excited State   3:      Singlet-A      3.4463 eV  359.76 nm  f=0.1421  <S**2>=0.000
      67 -> 68         0.67509
      67 -> 69        -0.17345

 Excited State   4:      Triplet-A      3.4909 eV  355.17 nm  f=0.0000  <S**2>=2.000
      65 -> 70        -0.10811
      66 -> 70         0.10432
      67 -> 69         0.23139
      67 -> 70         0.63842

 Excited State   5:      Singlet-A      3.7027 eV  334.85 nm  f=0.1700  <S**2>=0.000
      66 -> 68        -0.15077
      67 -> 68         0.17721
      67 -> 69         0.66093

 Excited State   6:      Singlet-A      3.7514 eV  330.50 nm  f=0.0098  <S**2>=0.000
      67 -> 70         0.69687

 The electronic state is 1-A.
 Alpha  occ. eigenvalues -- -101.55659 -14.41517 -10.26103 -10.23729 -10.22998
 Alpha  occ. eigenvalues --  -10.22467 -10.22197 -10.21427 -10.21342 -10.21222
 Alpha  occ. eigenvalues --  -10.21026 -10.21014 -10.20816 -10.20301 -10.20190
 Alpha  occ. eigenvalues --  -10.18993 -10.18799 -10.18176  -9.47168  -7.23571
 Alpha  occ. eigenvalues --   -7.22605  -7.22577  -1.01168  -0.89841  -0.85819
 Alpha  occ. eigenvalues --   -0.84458  -0.81413  -0.79126  -0.76779  -0.76209
 Alpha  occ. eigenvalues --   -0.72665  -0.70405  -0.65328  -0.63360  -0.63277
 Alpha  occ. eigenvalues --   -0.60724  -0.59619  -0.57800  -0.54465  -0.50902
 Alpha  occ. eigenvalues --   -0.49099  -0.48537  -0.47853  -0.46812  -0.45804
 Alpha  occ. eigenvalues --   -0.45149  -0.44731  -0.43966  -0.43369  -0.42523
 Alpha  occ. eigenvalues --   -0.41213  -0.40049  -0.39232  -0.38592  -0.37837
 Alpha  occ. eigenvalues --   -0.37103  -0.36714  -0.35649  -0.34959  -0.34304
 Alpha  occ. eigenvalues --   -0.32099  -0.31854  -0.30758  -0.27319  -0.26408
 Alpha  occ. eigenvalues --   -0.23446  -0.19145
 Alpha virt. eigenvalues --   -0.04492  -0.03224  -0.02979  -0.00709   0.00112
 Alpha virt. eigenvalues --    0.00675   0.01079   0.01521   0.01915   0.02314
 Alpha virt. eigenvalues --    0.02876   0.03510   0.03701   0.04103   0.04708

 Mulliken charges:
               1
     1  C   -0.542905
     2  C   -0.171180
     3  C    0.499976
     4  C   -0.379005
     5  C    0.572334
     6  C    0.231876
     7  C   -0.737477
     8  C    0.146779
     9  C   -0.084612
    10  C   -0.107150
    11  C    0.190690
    12  C   -0.210396
    13  C    0.005019
    14  Cl   0.241187
    15  C   -0.194401
    16  C   -0.489967
    17  N    0.175450
    18  C   -1.070631
    19  H    0.144246
    20  H    0.152336
    21  H    0.148374
    22  H    0.146932
    23  H    0.131471
    24  H    0.122997
    25  H    0.132548
    26  H    0.128370
    27  H    0.128264
    28  H    0.130111
    29  H    0.142552
    30  H    0.144010
    31  H    0.132536
    32  H    0.139664
 Sum of Mulliken charges =  -0.00000

 Dipole moment (field-independent basis, Debye):
    X=              2.3038    Y=              0.5947    Z=              0.0096  Tot=              2.3794
 Quadrupole moment (field-independent basis, Debye-Ang):
   XX=           -115.4407   YY=           -108.2779   ZZ=           -115.6982
   XY=              5.0082   XZ=             -2.3632   YZ=             -4.1161

 Normal termination of Gaussian 16 at Thu Oct  2 12:37:39 2025.
