 Gaussian 16, Revision C.02,
 Gaussian 16:  ES64L-G16RevC.02  7-Dec-2021

 ----------------------------------------------------------
 # td=(50-50,nstates=3) b3lyp/6-31+g(d,p) geom=connectivity
 ----------------------------------------------------------

 -------------------
 Title Card Required
 -------------------
 Symbolic Z-matrix:
 Charge =  0 Multiplicity = 1

                         Standard orientation:
 ---------------------------------------------------------------------
 Center     Atomic      Atomic             Coordinates (Angstroms)
 Number     Number       Type             X           Y           Z
 ---------------------------------------------------------------------
      1          6           0        0.865787   -3.569980   -1.617002
      2          6           0        1.575964   -2.450790   -0.881340
      3          6           0        2.557844   -2.815066    0.079647
      4          6           0        3.195921   -1.888451    0.866879
      5          6           0        2.953717   -0.506079    0.670626
      6          7           0        3.575559    0.382618    1.494173
      7          6           0        3.341111    1.661401    1.254775
      8          7           0        3.775827    2.587336    2.165600
      9          7           0        2.725359    2.163117    0.151525
     10          6           0        2.150724    1.304790   -0.671563
     11          7           0        1.672102    1.853468   -1.852598
     12          6           0        2.070844   -0.109254   -0.384974
     13          6           0        1.290243   -1.097711   -1.079983
     14          6           0        0.052640   -0.712231   -1.900732
     15          6           0       -1.066745   -0.119314   -1.059486
     16          6           0       -1.442253    1.198780   -1.135885
     17          6           0       -2.509822    1.756307   -0.346621
     18         17           0       -2.858446    3.458935   -0.562527
     19          6           0       -3.244115    1.021102    0.543735
     20          6           0       -2.876821   -0.343469    0.624504
     21          6           0       -1.826623   -0.929923   -0.142638
     22          7           0       -1.716437   -2.226202    0.108802
     23          8           0       -2.676866   -2.518601    1.039740
     24          7           0       -3.415938   -1.320827    1.367980
     25          8           0       -4.327186   -1.381225    2.188318
     26          1           0        0.852795   -3.412888   -2.701262
     27          1           0        1.378665   -4.518594   -1.436419
     28          1           0       -0.168905   -3.685168   -1.277893
     29          1           0        2.769360   -3.871349    0.223899
     30          1           0        3.891022   -2.179151    1.647356
     31          1           0        3.848080    3.543603    1.854122
     32          1           0        4.432381    2.265788    2.860714
     33          1           0        1.793408    1.289185   -2.682134
     34          1           0        1.993093    2.807632   -1.973188
     35          1           0        0.273727   -0.007151   -2.702780
     36          1           0       -0.335055   -1.609185   -2.387657
     37          1           0       -0.900635    1.865123   -1.796179
     38          1           0       -4.047751    1.431600    1.141904
 ---------------------------------------------------------------------

 SCF Done:  E(RB3LYP) =  -1556.63149364     A.U. after   17 cycles

 Excitation energies and oscillator strengths:

 Excited State   1:      Triplet-A      1.2872 eV  963.18 nm  f=0.0000  <S**2>=2.000
      91 -> 93         0.71462
      91 <- 93         0.22345
 This state for optimization and/or second-order correction.
 Total Energy, E(TD-HF/TD-DFT) =  -1556.58418831
 Copying the excited state density for this state as the 1-particle RhoCI density.

 Excited State   2:      Triplet-A      2.3284 eV  532.49 nm  f=0.0000  <S**2>=2.000
      92 -> 93         0.67819
      92 -> 94        -0.16470

 Excited State   3:      Singlet-A      2.3689 eV  523.38 nm  f=0.0012  <S**2>=0.000
      92 -> 93         0.70575

 Excited State   4:      Triplet-A      2.6668 eV  464.91 nm  f=0.0000  <S**2>=2.000
      89 -> 94         0.10956
      90 -> 94         0.13875
      92 -> 93         0.18061
      92 -> 94         0.63871

 Excited State   5:      Singlet-A      3.2421 eV  382.41 nm  f=0.1364  <S**2>=0.000
      91 -> 93         0.69255

 Excited State   6:      Singlet-A      3.4577 eV  358.57 nm  f=0.0013  <S**2>=0.000
      89 -> 93         0.13516
      90 -> 93         0.67621
      92 -> 94         0.11211

 The electronic state is 1-A.
 Alpha  occ. eigenvalues -- -101.57637 -19.29333 -19.20124 -14.55868 -14.42359
 Alpha  occ. eigenvalues --  -14.37431 -14.35753 -14.33818 -14.32232 -10.29330
 Alpha  occ. eigenvalues --  -10.29172 -10.29006 -10.27898 -10.27024 -10.25005
 Alpha  occ. eigenvalues --  -10.24428 -10.23889 -10.23595 -10.22596 -10.22395
 Alpha  occ. eigenvalues --  -10.21558 -10.21193 -10.20390 -10.19579 -10.18985
 Alpha  occ. eigenvalues --   -9.49108  -7.25530  -7.24548  -7.24503  -1.23178
 Alpha  occ. eigenvalues --   -1.13219  -1.01195  -0.95616  -0.94080  -0.90615
 Alpha  occ. eigenvalues --   -0.90018  -0.89777  -0.87767  -0.86032  -0.83647
 Alpha  occ. eigenvalues --   -0.80371  -0.77835  -0.77474  -0.72905  -0.69963
 Alpha  occ. eigenvalues --   -0.69337  -0.66989  -0.66124  -0.64314  -0.61765
 Alpha  occ. eigenvalues --   -0.59823  -0.57246  -0.56811  -0.55421  -0.55124
 Alpha  occ. eigenvalues --   -0.54798  -0.53661  -0.52562  -0.50888  -0.50003
 Alpha  occ. eigenvalues --   -0.49305  -0.47287  -0.47271  -0.46253  -0.45686
 Alpha  occ. eigenvalues --   -0.44909  -0.44670  -0.43662  -0.43408  -0.43029
 Alpha  occ. eigenvalues --   -0.42703  -0.41762  -0.40812  -0.40462  -0.39435
 Alpha  occ. eigenvalues --   -0.37746  -0.37605  -0.37107  -0.36874  -0.36128
 Alpha  occ. eigenvalues --   -0.35473  -0.33720  -0.32061  -0.30869  -0.30607
 Alpha  occ. eigenvalues --   -0.29830  -0.29322  -0.27602  -0.26105  -0.25617
 Alpha  occ. eigenvalues --   -0.23696  -0.21609
 Alpha virt. eigenvalues --   -0.10985  -0.06366  -0.02503  -0.02332  -0.02283
 Alpha virt. eigenvalues --   -0.01559  -0.00653   0.00296   0.00333   0.00687
 Alpha virt. eigenvalues --    0.01216   0.01748   0.02297   0.02778   0.03097

 Mulliken charges:
               1
     1  C   -0.632172
     2  C    0.150437
     3  C   -0.405592
     4  C   -0.683618
     5  C    0.212678
     6  N   -0.338349
     7  C    0.573181
     8  N   -0.538304
     9  N   -0.323750
    10  C   -0.292722
    11  N   -0.581545
    12  C    0.376676
    13  C    0.532587
    14  C   -0.094338
    15  C    1.981683
    16  C   -0.413621
    17  C    0.230914
    18  Cl   0.212487
    19  C    0.403296
    20  C   -0.809476
    21  C   -1.547896
    22  N   -0.486022
    23  O    0.444235
    24  N   -0.578380
    25  O    0.025148
    26  H    0.153510
    27  H    0.143870
    28  H    0.196903
    29  H    0.124042
    30  H    0.139023
    31  H    0.300301
    32  H    0.305536
    33  H    0.292197
    34  H    0.329446
    35  H    0.113640
    36  H    0.153552
    37  H    0.157279
    38  H    0.173164
 Sum of Mulliken charges =  -0.00000

 Dipole moment (field-independent basis, Debye):
    X=              2.6654    Y=              2.1406    Z=             -4.3270  Tot=              5.5145
 Quadrupole moment (field-independent basis, Debye-Ang):
   XX=           -159.8386   YY=           -147.3472   ZZ=           -146.3056
   XY=             -0.9198   XZ=              5.9021   YZ=              4.9724

 Normal termination of Gaussian 16 at Thu Oct  2 13:08:50 2025.
