 Gaussian 16, Revision C.02,
 Gaussian 16:  ES64L-G16RevC.02  7-Dec-2021

 ----------------------------------------------------------
 # td=(50-50,nstates=3) b3lyp/6-31+g(d,p) geom=connectivity
 ----------------------------------------------------------

 -------------------
 Title Card Required
 -------------------
 Symbolic Z-matrix:
 Charge =  0 Multiplicity = 1

                         Standard orientation:
 ---------------------------------------------------------------------
 Center     Atomic      Atomic             Coordinates (Angstroms)
 Number     Number       Type             X           Y           Z
 ---------------------------------------------------------------------
      1          6           0       -5.184207    0.894200   -1.051303
      2          6           0       -4.243999    0.559059    0.111989
      3          6           0       -2.773941    0.475585   -0.318892
      4          6           0       -1.839376    0.135135    0.865919
      5          6           0       -0.386438    0.080465    0.470835
      6          6           0        0.320607   -1.062506    0.196935
      7          7           0       -0.384374   -2.358666    0.344184
      8          8           0       -1.135499   -2.691816   -0.567507
      9          8           0       -0.175032   -2.988070    1.375345
     10          6           0        1.706272   -1.104870   -0.211115
     11         17           0        2.445111   -2.642466   -0.556815
     12          6           0        2.434644    0.046376   -0.347787
     13          6           0        1.744419    1.246437   -0.059547
     14          6           0        0.378625    1.290722    0.337849
     15          7           0       -0.026921    2.533535    0.551743
     16          8           0        1.054030    3.330627    0.300675
     17          7           0        2.187251    2.513282   -0.089735
     18          8           0        3.254457    3.049965   -0.357318
     19          1           0       -6.225092    0.946826   -0.715569
     20          1           0       -4.929796    1.861048   -1.500814
     21          1           0       -5.126117    0.134431   -1.839178
     22          1           0       -4.544341   -0.396810    0.562152
     23          1           0       -4.348277    1.318403    0.898840
     24          1           0       -2.465774    1.431963   -0.758776
     25          1           0       -2.658014   -0.289564   -1.095861
     26          1           0       -2.144521   -0.817180    1.310428
     27          1           0       -1.951509    0.900851    1.642031
     28          1           0        3.471580    0.045619   -0.659594
 ---------------------------------------------------------------------

 SCF Done:  E(RB3LYP) =  -1312.22145307     A.U. after   18 cycles

 Excitation energies and oscillator strengths:

 Excited State   1:      Triplet-A      1.2336 eV 1005.09 nm  f=0.0000  <S**2>=2.000
      68 -> 74         0.10931
      70 -> 71         0.71285
      70 -> 72         0.12012
      70 -> 74        -0.10083
      70 <- 71         0.23011
 This state for optimization and/or second-order correction.
 Total Energy, E(TD-HF/TD-DFT) =  -1312.17612026
 Copying the excited state density for this state as the 1-particle RhoCI density.

 Excited State   2:      Triplet-A      2.8502 eV  434.99 nm  f=0.0000  <S**2>=2.000
      61 -> 72        -0.29469
      62 -> 72         0.19830
      63 -> 72        -0.37007
      64 -> 71         0.10179
      64 -> 72        -0.39029
      66 -> 72         0.13390
      69 -> 72        -0.12950
      70 -> 72        -0.17006
      64 <- 72        -0.10684

 Excited State   3:      Triplet-A      2.9803 eV  416.02 nm  f=0.0000  <S**2>=2.000
      64 -> 72        -0.26095
      69 -> 71        -0.20852
      69 -> 72         0.28226
      70 -> 72         0.50920

 Excited State   4:      Singlet-A      3.0774 eV  402.88 nm  f=0.0292  <S**2>=0.000
      69 -> 72        -0.10307
      70 -> 71         0.50160
      70 -> 72        -0.48091

 Excited State   5:      Singlet-A      3.2780 eV  378.23 nm  f=0.0950  <S**2>=0.000
      69 -> 72         0.10449
      70 -> 71         0.48811
      70 -> 72         0.49001

 Excited State   6:      Singlet-A      3.8144 eV  325.04 nm  f=0.0025  <S**2>=0.000
      62 -> 72        -0.13730
      64 -> 72        -0.17871
      69 -> 71        -0.24042
      69 -> 72         0.58574
      70 -> 72        -0.14846

 The electronic state is 1-A.
 Alpha  occ. eigenvalues -- -101.59738 -19.31137 -19.23152 -19.23148 -19.22093
 Alpha  occ. eigenvalues --  -14.61392 -14.57789 -14.44283 -10.31890 -10.30641
 Alpha  occ. eigenvalues --  -10.29887 -10.29077 -10.27750 -10.26734 -10.23021
 Alpha  occ. eigenvalues --  -10.20821 -10.20029 -10.18811  -9.51189  -7.27647
 Alpha  occ. eigenvalues --   -7.26606  -7.26568  -1.27067  -1.25021  -1.15281
 Alpha  occ. eigenvalues --   -1.09939  -0.96794  -0.92555  -0.91840  -0.87989
 Alpha  occ. eigenvalues --   -0.83078  -0.81557  -0.78508  -0.74549  -0.69830
 Alpha  occ. eigenvalues --   -0.67587  -0.67206  -0.62890  -0.60481  -0.60136
 Alpha  occ. eigenvalues --   -0.59478  -0.56911  -0.56134  -0.55197  -0.54650
 Alpha  occ. eigenvalues --   -0.52992  -0.49881  -0.49198  -0.48050  -0.46873
 Alpha  occ. eigenvalues --   -0.46528  -0.44987  -0.44252  -0.43975  -0.43104
 Alpha  occ. eigenvalues --   -0.40479  -0.39774  -0.38561  -0.37643  -0.36509
 Alpha  occ. eigenvalues --   -0.36026  -0.35499  -0.35123  -0.34992  -0.34556
 Alpha  occ. eigenvalues --   -0.34207  -0.32617  -0.32219  -0.30961  -0.25588
 Alpha virt. eigenvalues --   -0.13088  -0.11380  -0.04634  -0.04296  -0.02708
 Alpha virt. eigenvalues --   -0.00902   0.00260   0.00768   0.01103   0.01484
 Alpha virt. eigenvalues --    0.02265   0.03151   0.03529   0.04474   0.04741

 Mulliken charges:
               1
     1  C   -0.713504
     2  C   -0.152434
     3  C   -0.207290
     4  C   -0.273368
     5  C    1.201824
     6  C   -0.674913
     7  N   -0.404680
     8  O    0.040350
     9  O    0.043412
    10  C    0.142859
    11  Cl   0.310150
    12  C    0.725792
    13  C   -1.420125
    14  C    0.426618
    15  N   -0.505745
    16  O    0.367977
    17  N   -0.516620
    18  O    0.060798
    19  H    0.149169
    20  H    0.148933
    21  H    0.150542
    22  H    0.142961
    23  H    0.141533
    24  H    0.153988
    25  H    0.159108
    26  H    0.152321
    27  H    0.168275
    28  H    0.182067
 Sum of Mulliken charges =  -0.00000

 Dipole moment (field-independent basis, Debye):
    X=             -0.8483    Y=              0.0616    Z=             -0.2406  Tot=              0.8839
 Quadrupole moment (field-independent basis, Debye-Ang):
   XX=           -109.0303   YY=           -133.9376   ZZ=           -113.3326
   XY=            -10.1105   XZ=             -1.5045   YZ=              1.8658

 Normal termination of Gaussian 16 at Thu Oct  2 13:00:44 2025.
