 Gaussian 16, Revision C.02,
 Gaussian 16:  ES64L-G16RevC.02  7-Dec-2021

 ----------------------------------------------------------
 # td=(50-50,nstates=3) b3lyp/6-31+g(d,p) geom=connectivity
 ----------------------------------------------------------

 -------------------
 Title Card Required
 -------------------
 Symbolic Z-matrix:
 Charge =  0 Multiplicity = 1

                         Standard orientation:
 ---------------------------------------------------------------------
 Center     Atomic      Atomic             Coordinates (Angstroms)
 Number     Number       Type             X           Y           Z
 ---------------------------------------------------------------------
      1          6           0       -4.424180    0.532434    0.368731
      2          6           0       -3.372661   -0.222428   -0.015259
      3          6           0       -3.643881   -1.509558   -0.600123
      4          7           0       -3.908153   -2.527264   -1.098767
      5          6           0       -1.978875    0.292769    0.029025
      6          6           0       -0.807935   -0.398413    0.182769
      7          6           0       -0.838270   -1.875747    0.588798
      8          6           0       -0.316128   -2.868076   -0.468166
      9          6           0       -0.188253   -2.122233    1.968021
     10          6           0        0.431569    0.379046    0.045051
     11          6           0        1.780821   -0.270072   -0.045443
     12          6           0        2.229710   -0.771007   -1.275593
     13          6           0        3.509067   -1.318877   -1.392995
     14          6           0        4.354969   -1.370962   -0.282400
     15          6           0        3.918576   -0.862735    0.944015
     16          6           0        2.641894   -0.309505    1.060156
     17          6           0        0.353371    1.739483   -0.043638
     18         17           0        1.774716    2.743560   -0.221073
     19          6           0       -0.914059    2.468485   -0.006619
     20          7           0       -1.163697    3.712466    0.067822
     21          8           0       -2.019130    1.646795   -0.119852
     22          1           0       -4.273798    1.529474    0.765236
     23          1           0       -5.437740    0.160147    0.273669
     24          1           0       -1.891930   -2.119563    0.731642
     25          1           0       -0.578281   -3.886926   -0.163512
     26          1           0       -0.775525   -2.688766   -1.444699
     27          1           0        0.768855   -2.820905   -0.578119
     28          1           0       -0.422534   -3.140004    2.298426
     29          1           0       -0.575440   -1.427414    2.721057
     30          1           0        0.898928   -2.027737    1.936170
     31          1           0        1.578043   -0.726807   -2.143242
     32          1           0        3.843100   -1.701905   -2.352747
     33          1           0        5.349389   -1.797736   -0.373423
     34          1           0        4.573178   -0.889386    1.810190
     35          1           0        2.314599    0.101104    2.010730
     36          1           0       -0.299430    4.249517    0.104303
 ---------------------------------------------------------------------

 SCF Done:  E(RB3LYP) =  -1301.74154619     A.U. after   17 cycles

 Excitation energies and oscillator strengths:

 Excited State   1:      Triplet-A      1.9065 eV  650.31 nm  f=0.0000  <S**2>=2.000
      78 -> 79         0.67363
      78 -> 80         0.15143
      78 <- 79         0.11056
 This state for optimization and/or second-order correction.
 Total Energy, E(TD-HF/TD-DFT) =  -1301.67148233
 Copying the excited state density for this state as the 1-particle RhoCI density.

 Excited State   2:      Triplet-A      2.9738 eV  416.92 nm  f=0.0000  <S**2>=2.000
      74 -> 79        -0.39592
      74 -> 80         0.11377
      75 -> 79         0.14323
      78 -> 80         0.52005

 Excited State   3:      Singlet-A      3.2237 eV  384.60 nm  f=0.1621  <S**2>=0.000
      78 -> 79         0.69927

 Excited State   4:      Triplet-A      3.6676 eV  338.05 nm  f=0.0000  <S**2>=2.000
      74 -> 79        -0.23454
      74 -> 80         0.14528
      75 -> 79         0.12016
      76 -> 82        -0.32341
      77 -> 79        -0.12506
      77 -> 80        -0.15015
      77 -> 81         0.36527
      78 -> 80        -0.21631
      78 -> 83        -0.10426
      78 -> 84         0.11233

 Excited State   5:      Singlet-A      3.9968 eV  310.21 nm  f=0.0015  <S**2>=0.000
      77 -> 79         0.69149
      77 -> 80         0.11177

 Excited State   6:      Singlet-A      4.1520 eV  298.61 nm  f=0.0768  <S**2>=0.000
      74 -> 79         0.11205
      78 -> 80         0.68251

 The electronic state is 1-A.
 Alpha  occ. eigenvalues -- -101.57835 -19.23695 -14.36038 -14.32491 -10.31397
 Alpha  occ. eigenvalues --  -10.30091 -10.28323 -10.27134 -10.25576 -10.25361
 Alpha  occ. eigenvalues --  -10.24105 -10.23813 -10.22925 -10.21971 -10.21606
 Alpha  occ. eigenvalues --  -10.21583 -10.21460 -10.21419 -10.21379 -10.19086
 Alpha  occ. eigenvalues --  -10.18433  -9.49266  -7.25689  -7.24713  -7.24662
 Alpha  occ. eigenvalues --   -1.13293  -0.93610  -0.92858  -0.90573  -0.87585
 Alpha  occ. eigenvalues --   -0.85986  -0.84256  -0.80289  -0.77299  -0.76871
 Alpha  occ. eigenvalues --   -0.75569  -0.69713  -0.68561  -0.67810  -0.66064
 Alpha  occ. eigenvalues --   -0.62827  -0.60814  -0.59611  -0.57237  -0.55017
 Alpha  occ. eigenvalues --   -0.53503  -0.50593  -0.49534  -0.49162  -0.48514
 Alpha  occ. eigenvalues --   -0.48152  -0.47311  -0.45555  -0.44871  -0.44697
 Alpha  occ. eigenvalues --   -0.44245  -0.42900  -0.42419  -0.40745  -0.40047
 Alpha  occ. eigenvalues --   -0.39694  -0.39307  -0.38714  -0.38164  -0.37268
 Alpha  occ. eigenvalues --   -0.36947  -0.36199  -0.35894  -0.35752  -0.33898
 Alpha  occ. eigenvalues --   -0.33643  -0.33259  -0.31229  -0.30139  -0.29431
 Alpha  occ. eigenvalues --   -0.27415  -0.26966  -0.23263
 Alpha virt. eigenvalues --   -0.09880  -0.05934  -0.03538  -0.03242  -0.01691
 Alpha virt. eigenvalues --   -0.00813  -0.00234   0.00346   0.00854   0.01184
 Alpha virt. eigenvalues --    0.01488   0.01722   0.02859   0.02968   0.03307

 Mulliken charges:
               1
     1  C   -0.209146
     2  C    0.592836
     3  C   -0.228260
     4  N   -0.459342
     5  C    0.122171
     6  C   -0.472711
     7  C    0.253334
     8  C   -0.585151
     9  C   -0.612345
    10  C    0.570658
    11  C    0.027016
    12  C   -0.191148
    13  C   -0.117511
    14  C   -0.063885
    15  C   -0.153557
    16  C   -0.184161
    17  C   -0.240989
    18  Cl   0.256494
    19  C    0.133555
    20  N   -0.484827
    21  O   -0.264920
    22  H    0.185945
    23  H    0.169923
    24  H    0.115259
    25  H    0.149357
    26  H    0.158598
    27  H    0.162261
    28  H    0.149449
    29  H    0.144088
    30  H    0.162663
    31  H    0.127133
    32  H    0.132074
    33  H    0.130223
    34  H    0.132045
    35  H    0.127755
    36  H    0.265115
 Sum of Mulliken charges =  -0.00000

 Dipole moment (field-independent basis, Debye):
    X=              2.9227    Y=             -1.0849    Z=              1.9140  Tot=              3.6582
 Quadrupole moment (field-independent basis, Debye-Ang):
   XX=           -124.7336   YY=           -148.8964   ZZ=           -128.7255
   XY=             -7.8116   XZ=             -7.0234   YZ=             -2.2606

 Normal termination of Gaussian 16 at Mon Aug 25 14:39:38 2025.
