 Gaussian 16, Revision C.02,
 Gaussian 16:  ES64L-G16RevC.02  7-Dec-2021

 ----------------------------------------------------------
 # td=(50-50,nstates=3) b3lyp/6-31+g(d,p) geom=connectivity
 ----------------------------------------------------------

 -------------------
 Title Card Required
 -------------------
 Symbolic Z-matrix:
 Charge =  0 Multiplicity = 1

                         Standard orientation:
 ---------------------------------------------------------------------
 Center     Atomic      Atomic             Coordinates (Angstroms)
 Number     Number       Type             X           Y           Z
 ---------------------------------------------------------------------
      1          6           0        0.099436    3.156300    1.869114
      2          6           0        0.197667    3.589617    0.600356
      3          7           0        0.738926    2.921681   -0.499066
      4          6           0        0.274273    3.308111   -1.829715
      5          6           0        1.274951    1.624982   -0.344328
      6          8           0        0.160917    0.650119   -0.292153
      7          6           0        0.450270   -0.647477   -0.066652
      8          7           0       -0.579349   -1.484708    0.064512
      9          8           0       -0.371831   -2.771300    0.177548
     10          6           0       -1.972971   -1.068883    0.039700
     11          6           0       -2.424959    0.104476    0.651789
     12          6           0       -3.791541    0.392065    0.639029
     13          6           0       -4.696109   -0.474030    0.019609
     14          6           0       -4.230549   -1.647270   -0.581839
     15          6           0       -2.870824   -1.955023   -0.564007
     16          7           0        1.766408   -0.991959   -0.005126
     17          6           0        2.243695   -2.178522    0.149048
     18          6           0        3.740259   -2.379898    0.226236
     19          6           0        4.540327   -1.162481    0.070234
     20          7           0        5.195649   -0.212891   -0.054799
     21          1           0       -0.264096    3.832961    2.632999
     22          1           0        0.389208    2.160780    2.186273
     23          1           0       -0.138677    4.593624    0.351522
     24          1           0        0.197112    4.397631   -1.884023
     25          1           0        1.002255    2.981539   -2.577404
     26          1           0       -0.703839    2.874014   -2.077579
     27          1           0        1.907455    1.363718   -1.193377
     28          1           0        1.846425    1.544967    0.580607
     29          1           0       -1.733246    0.786820    1.127726
     30          1           0       -4.145361    1.298448    1.121128
     31          1           0       -5.756563   -0.240032    0.011436
     32          1           0       -4.926968   -2.330034   -1.059365
     33          1           0       -2.489559   -2.873545   -0.993105
     34          1           0        1.616091   -3.063029    0.231651
     35          1           0        3.988337   -2.848925    1.189120
     36          1           0        4.043753   -3.106158   -0.540854
 ---------------------------------------------------------------------

 SCF Done:  E(RB3LYP) =  -912.488510839     A.U. after   18 cycles

 Excitation energies and oscillator strengths:

 Excited State   1:      Triplet-A      1.2008 eV 1032.55 nm  f=0.0000  <S**2>=2.000
      72 -> 73         0.72872
      72 <- 73         0.23568
 This state for optimization and/or second-order correction.
 Total Energy, E(TD-HF/TD-DFT) =  -912.444383907
 Copying the excited state density for this state as the 1-particle RhoCI density.

 Excited State   2:      Triplet-A      2.9115 eV  425.84 nm  f=0.0000  <S**2>=2.000
      68 -> 73         0.15152
      70 -> 73         0.54834
      71 -> 73        -0.39920

 Excited State   3:      Singlet-A      3.0714 eV  403.67 nm  f=0.0048  <S**2>=0.000
      70 -> 73        -0.22926
      71 -> 73         0.65334
      72 -> 73         0.10257

 Excited State   4:      Triplet-A      3.1773 eV  390.22 nm  f=0.0000  <S**2>=2.000
      70 -> 73         0.39019
      71 -> 73         0.57855

 Excited State   5:      Singlet-A      3.3287 eV  372.47 nm  f=0.2522  <S**2>=0.000
      70 -> 73        -0.31164
      71 -> 73        -0.21446
      72 -> 73         0.58889

 Excited State   6:      Singlet-A      3.3579 eV  369.23 nm  f=0.0652  <S**2>=0.000
      68 -> 73         0.18999
      70 -> 73         0.54098
      71 -> 73         0.16146
      72 -> 73         0.37220

 The electronic state is 1-A.
 Alpha  occ. eigenvalues --  -19.20436 -19.13583 -14.47347 -14.37622 -14.37185
 Alpha  occ. eigenvalues --  -14.34933 -10.33270 -10.28737 -10.27067 -10.25891
 Alpha  occ. eigenvalues --  -10.24710 -10.24407 -10.23493 -10.23139 -10.20851
 Alpha  occ. eigenvalues --  -10.20702 -10.20640 -10.20617 -10.20557 -10.17991
 Alpha  occ. eigenvalues --   -1.12156  -1.08007  -0.97126  -0.95590  -0.91600
 Alpha  occ. eigenvalues --   -0.88179  -0.84782  -0.81169  -0.77271  -0.76654
 Alpha  occ. eigenvalues --   -0.76049  -0.73882  -0.68701  -0.67062  -0.64692
 Alpha  occ. eigenvalues --   -0.61896  -0.59129  -0.58170  -0.56673  -0.55597
 Alpha  occ. eigenvalues --   -0.53290  -0.51451  -0.49920  -0.49502  -0.48819
 Alpha  occ. eigenvalues --   -0.48524  -0.48028  -0.46945  -0.45446  -0.45131
 Alpha  occ. eigenvalues --   -0.44482  -0.43798  -0.43498  -0.42239  -0.40871
 Alpha  occ. eigenvalues --   -0.39736  -0.38495  -0.37724  -0.37290  -0.37184
 Alpha  occ. eigenvalues --   -0.36483  -0.35751  -0.34428  -0.34124  -0.33624
 Alpha  occ. eigenvalues --   -0.32873  -0.30617  -0.27253  -0.26707  -0.25281
 Alpha  occ. eigenvalues --   -0.22202  -0.21160
 Alpha virt. eigenvalues --   -0.08618  -0.02219  -0.02183  -0.00770  -0.00110
 Alpha virt. eigenvalues --   -0.00028   0.00856   0.01319   0.01495   0.01712
 Alpha virt. eigenvalues --    0.01993   0.02786   0.03170   0.03311   0.03979

 Mulliken charges:
               1
     1  C   -0.230209
     2  C   -0.087009
     3  N    0.073654
     4  C   -0.173676
     5  C   -0.436132
     6  O   -0.360785
     7  C    0.578231
     8  N   -0.472788
     9  O   -0.048598
    10  C   -0.751283
    11  C    0.576468
    12  C   -0.470321
    13  C    0.062961
    14  C   -0.177913
    15  C    0.345381
    16  N   -0.170264
    17  C   -0.025443
    18  C   -0.393373
    19  C    0.209633
    20  N   -0.502087
    21  H    0.131608
    22  H    0.117013
    23  H    0.117921
    24  H    0.144048
    25  H    0.146480
    26  H    0.165390
    27  H    0.153496
    28  H    0.161147
    29  H    0.150989
    30  H    0.131563
    31  H    0.127178
    32  H    0.130406
    33  H    0.159049
    34  H    0.209551
    35  H    0.204503
    36  H    0.203211
 Sum of Mulliken charges =  -0.00000

 Dipole moment (field-independent basis, Debye):
    X=             -2.1462    Y=              0.3423    Z=             -1.1775  Tot=              2.4718
 Quadrupole moment (field-independent basis, Debye-Ang):
   XX=           -126.9865   YY=           -109.4001   ZZ=           -115.8598
   XY=            -16.8534   XZ=              2.0350   YZ=             -1.5743

 Normal termination of Gaussian 16 at Mon Aug 25 14:25:25 2025.
