 Gaussian 16, Revision C.02,
 Gaussian 16:  ES64L-G16RevC.02  7-Dec-2021

 ----------------------------------------------------------
 # td=(50-50,nstates=3) b3lyp/6-31+g(d,p) geom=connectivity
 ----------------------------------------------------------

 -------------------
 Title Card Required
 -------------------
 Symbolic Z-matrix:
 Charge =  0 Multiplicity = 1

                         Standard orientation:
 ---------------------------------------------------------------------
 Center     Atomic      Atomic             Coordinates (Angstroms)
 Number     Number       Type             X           Y           Z
 ---------------------------------------------------------------------
      1          6           0       -7.099160    0.031702   -0.009193
      2          6           0       -5.734373   -0.664499    0.034923
      3          6           0       -4.558108    0.318563   -0.040569
      4          6           0       -3.204753   -0.404953    0.005540
      5          6           0       -1.976619    0.492552   -0.066075
      6          6           0       -2.238236    1.896867   -0.149387
      7          7           0       -2.461767    3.040163   -0.215296
      8          6           0       -0.643206    0.107518   -0.060335
      9          6           0        0.405664    1.102532   -0.141596
     10          6           0        1.733950    0.796426   -0.150068
     11          8           0        2.740644    1.683218   -0.246836
     12          6           0        2.493577    3.100733   -0.355566
     13          6           0        2.248404    3.750466    0.999886
     14          6           0        2.173130   -0.596146   -0.061089
     15          6           0        3.514965   -0.974778   -0.059781
     16          6           0        3.850978   -2.361986    0.030621
     17          7           0        4.098743   -3.498715    0.105371
     18          6           0        4.648381   -0.109591   -0.139707
     19          7           0        5.645313    0.491433   -0.198011
     20          6           0        1.143991   -1.593125    0.025802
     21          6           0       -0.188006   -1.285840    0.026460
     22          8           0       -1.161777   -2.217388    0.107451
     23          6           0       -0.802224   -3.600521    0.198280
     24          1           0       -7.917120   -0.694186    0.046453
     25          1           0       -7.215009    0.729866    0.827801
     26          1           0       -7.222612    0.603172   -0.936335
     27          1           0       -5.662599   -1.381503   -0.794802
     28          1           0       -5.655070   -1.255668    0.957928
     29          1           0       -4.630417    1.034161    0.788224
     30          1           0       -4.637411    0.908324   -0.962652
     31          1           0       -3.150159   -1.130956   -0.814075
     32          1           0       -3.141632   -1.004460    0.921577
     33          1           0        0.098001    2.137232   -0.198570
     34          1           0        3.411098    3.483178   -0.807503
     35          1           0        1.669538    3.274487   -1.057124
     36          1           0        2.137438    4.831907    0.866938
     37          1           0        1.341494    3.376247    1.482426
     38          1           0        3.097556    3.570823    1.665176
     39          1           0        1.459887   -2.624947    0.091357
     40          1           0       -1.746287   -4.141956    0.252378
     41          1           0       -0.242128   -3.916803   -0.688023
     42          1           0       -0.211644   -3.791243    1.100570
 ---------------------------------------------------------------------

 SCF Done:  E(RB3LYP) =  -1012.02339960     A.U. after   16 cycles

 Excitation energies and oscillator strengths:

 Excited State   1:      Triplet-A      0.9067 eV 1367.49 nm  f=0.0000  <S**2>=2.000
      82 -> 83         0.74453
      82 <- 83         0.26114
 This state for optimization and/or second-order correction.
 Total Energy, E(TD-HF/TD-DFT) =  -1011.99008069
 Copying the excited state density for this state as the 1-particle RhoCI density.

 Excited State   2:      Triplet-A      2.0008 eV  619.68 nm  f=0.0000  <S**2>=2.000
      81 -> 83         0.69718

 Excited State   3:      Singlet-A      2.6293 eV  471.54 nm  f=0.0571  <S**2>=0.000
      81 -> 83         0.64943
      82 -> 83         0.26902

 Excited State   4:      Singlet-A      2.9697 eV  417.50 nm  f=0.8797  <S**2>=0.000
      81 -> 83        -0.26717
      82 -> 83         0.66166
      82 <- 83        -0.14307

 Excited State   5:      Triplet-A      3.3109 eV  374.48 nm  f=0.0000  <S**2>=2.000
      80 -> 83         0.58494
      82 -> 84        -0.36300

 Excited State   6:      Singlet-A      4.2901 eV  289.00 nm  f=0.0064  <S**2>=0.000
      79 -> 83        -0.15707
      80 -> 83         0.54991
      82 -> 84         0.40767

 The electronic state is 1-A.
 Alpha  occ. eigenvalues --  -19.23609 -19.21761 -14.36528 -14.36006 -14.34843
 Alpha  occ. eigenvalues --  -10.30918 -10.29984 -10.28035 -10.27848 -10.27411
 Alpha  occ. eigenvalues --  -10.27333 -10.26959 -10.26510 -10.25545 -10.25404
 Alpha  occ. eigenvalues --  -10.24631 -10.23189 -10.22909 -10.22382 -10.20365
 Alpha  occ. eigenvalues --  -10.20280 -10.20146 -10.18902  -1.12116  -1.10542
 Alpha  occ. eigenvalues --   -0.93604  -0.93370  -0.91381  -0.90506  -0.86811
 Alpha  occ. eigenvalues --   -0.83163  -0.80953  -0.80268  -0.78242  -0.76453
 Alpha  occ. eigenvalues --   -0.74205  -0.71221  -0.67656  -0.66444  -0.65638
 Alpha  occ. eigenvalues --   -0.62495  -0.60236  -0.59331  -0.58231  -0.55997
 Alpha  occ. eigenvalues --   -0.53847  -0.52974  -0.51466  -0.50490  -0.49652
 Alpha  occ. eigenvalues --   -0.49067  -0.48008  -0.47668  -0.46267  -0.45045
 Alpha  occ. eigenvalues --   -0.44778  -0.44004  -0.43542  -0.42131  -0.41463
 Alpha  occ. eigenvalues --   -0.41324  -0.40406  -0.39265  -0.38960  -0.38915
 Alpha  occ. eigenvalues --   -0.38515  -0.38376  -0.37622  -0.37403  -0.37360
 Alpha  occ. eigenvalues --   -0.36728  -0.35734  -0.35312  -0.35262  -0.35020
 Alpha  occ. eigenvalues --   -0.34806  -0.34547  -0.33662  -0.32901  -0.32169
 Alpha  occ. eigenvalues --   -0.26137  -0.23710
 Alpha virt. eigenvalues --   -0.13998  -0.04594  -0.01945  -0.01781  -0.01258
 Alpha virt. eigenvalues --   -0.00393  -0.00047   0.00348   0.00819   0.01342
 Alpha virt. eigenvalues --    0.01575   0.01625   0.02152   0.02968   0.03104

 Mulliken charges:
               1
     1  C   -0.698965
     2  C   -0.238494
     3  C   -0.456908
     4  C   -0.126344
     5  C    1.048083
     6  C   -0.863572
     7  N   -0.475194
     8  C    0.871792
     9  C   -0.664252
    10  C   -0.078741
    11  O   -0.300381
    12  C   -0.006887
    13  C   -0.392905
    14  C    1.110317
    15  C    0.791276
    16  C   -0.537323
    17  N   -0.485698
    18  C    0.094784
    19  N   -0.524658
    20  C   -0.765721
    21  C    0.225307
    22  O   -0.367372
    23  C   -0.112912
    24  H    0.146806
    25  H    0.149599
    26  H    0.149587
    27  H    0.138443
    28  H    0.138428
    29  H    0.158985
    30  H    0.158933
    31  H    0.178690
    32  H    0.178745
    33  H    0.136796
    34  H    0.163870
    35  H    0.135878
    36  H    0.158550
    37  H    0.158309
    38  H    0.171286
    39  H    0.148183
    40  H    0.158106
    41  H    0.162849
    42  H    0.162724
 Sum of Mulliken charges =  -0.00000

 Dipole moment (field-independent basis, Debye):
    X=             -6.9082    Y=             -1.1389    Z=              0.3946  Tot=              7.0126
 Quadrupole moment (field-independent basis, Debye-Ang):
   XX=           -177.7628   YY=           -140.3907   ZZ=           -136.7553
   XY=             27.1189   XZ=             -0.0327   YZ=              0.6108

 Normal termination of Gaussian 16 at Mon Aug 25 14:33:28 2025.
