 Gaussian 16, Revision C.02,
 Gaussian 16:  ES64L-G16RevC.02  7-Dec-2021

 ----------------------------------------------------------
 # td=(50-50,nstates=3) b3lyp/6-31+g(d,p) geom=connectivity
 ----------------------------------------------------------

 -------------------
 Title Card Required
 -------------------
 Symbolic Z-matrix:
 Charge =  0 Multiplicity = 1

                         Standard orientation:
 ---------------------------------------------------------------------
 Center     Atomic      Atomic             Coordinates (Angstroms)
 Number     Number       Type             X           Y           Z
 ---------------------------------------------------------------------
      1          6           0        3.465543   -2.735988    0.139816
      2          7           0        3.244143   -1.321687   -0.144677
      3          6           0        4.437653   -0.480149   -0.207743
      4          6           0        4.126442    0.830525   -0.911461
      5          7           0        3.028762    1.528853   -0.242450
      6          6           0        2.879711    2.944125   -0.572217
      7          6           0        1.949971    0.769215    0.129638
      8          6           0        0.674529    1.129646    0.515167
      9          6           0        0.171378    2.436866    0.692857
     10          7           0       -0.277857    3.500496    0.874475
     11          6           0       -0.120450   -0.101029    0.925632
     12          6           0       -1.562178   -0.353507    0.358803
     13          6           0       -2.667488    0.360052    1.156919
     14          6           0       -2.413046    0.961100    2.515551
     15          6           0       -3.923670    0.304203    0.668995
     16          6           0       -4.220795   -0.349883   -0.600647
     17          8           0       -5.538860   -0.602082   -0.918529
     18          6           0       -3.239410   -0.664739   -1.460971
     19          6           0       -1.795816   -0.248167   -1.193299
     20          6           0       -0.872347   -1.213389   -1.965111
     21          6           0       -1.613742    1.178115   -1.773881
     22          6           0        0.884803   -1.216861    0.680472
     23          6           0        0.555180   -2.556815    0.978045
     24          7           0        0.217865   -3.643646    1.245613
     25          6           0        2.076741   -0.703912    0.223291
     26          1           0        2.614938   -3.329831   -0.193254
     27          1           0        4.350270   -3.064670   -0.410439
     28          1           0        3.624213   -2.924219    1.211323
     29          1           0        5.203788   -1.017162   -0.774259
     30          1           0        4.838565   -0.280963    0.799582
     31          1           0        3.888698    0.640372   -1.970702
     32          1           0        5.009903    1.474381   -0.875577
     33          1           0        3.875607    3.384217   -0.659874
     34          1           0        2.343574    3.091206   -1.520728
     35          1           0        2.341664    3.470099    0.214888
     36          1           0       -0.246598   -0.053347    2.016137
     37          1           0       -1.739270   -1.420962    0.581058
     38          1           0       -3.342118    1.363041    2.929115
     39          1           0       -2.037976    0.210425    3.224782
     40          1           0       -1.684554    1.777668    2.486212
     41          1           0       -4.748176    0.740772    1.231257
     42          1           0       -6.082062   -0.544347   -0.122259
     43          1           0       -3.481346   -1.113065   -2.420783
     44          1           0       -0.953228   -2.237910   -1.587619
     45          1           0       -1.160511   -1.225086   -3.022655
     46          1           0        0.174826   -0.905576   -1.913942
     47          1           0       -1.958185    1.185535   -2.813744
     48          1           0       -2.202067    1.916051   -1.222208
     49          1           0       -0.567540    1.495472   -1.767943
 ---------------------------------------------------------------------

 SCF Done:  E(RB3LYP) =  -1070.78715514     A.U. after   17 cycles

 Excitation energies and oscillator strengths:

 Excited State   1:      Triplet-A      2.1516 eV  576.25 nm  f=0.0000  <S**2>=2.000
      89 -> 91         0.69412
      89 <- 91         0.10564
 This state for optimization and/or second-order correction.
 Total Energy, E(TD-HF/TD-DFT) =  -1070.70808641
 Copying the excited state density for this state as the 1-particle RhoCI density.

 Excited State   2:      Triplet-A      2.4296 eV  510.30 nm  f=0.0000  <S**2>=2.000
      90 -> 92         0.67614
      90 -> 96         0.11839
      90 <- 92         0.11728

 Excited State   3:      Triplet-A      2.7668 eV  448.11 nm  f=0.0000  <S**2>=2.000
      88 -> 91         0.66075
      90 -> 91         0.18507

 Excited State   4:      Singlet-A      2.8164 eV  440.22 nm  f=0.0003  <S**2>=0.000
      90 -> 91         0.70667

 Excited State   5:      Singlet-A      3.6483 eV  339.84 nm  f=0.0966  <S**2>=0.000
      89 -> 91         0.70371

 Excited State   6:      Singlet-A      3.9745 eV  311.95 nm  f=0.2177  <S**2>=0.000
      88 -> 91         0.68033

 The electronic state is 1-A.
 Alpha  occ. eigenvalues --  -19.17759 -14.40075 -14.40025 -14.33850 -14.33839
 Alpha  occ. eigenvalues --  -10.27610 -10.27446 -10.26263 -10.26239 -10.24180
 Alpha  occ. eigenvalues --  -10.24147 -10.23954 -10.23510 -10.23440 -10.23180
 Alpha  occ. eigenvalues --  -10.23097 -10.23004 -10.21161 -10.20840 -10.20753
 Alpha  occ. eigenvalues --  -10.18908 -10.18781 -10.17276 -10.16754 -10.16648
 Alpha  occ. eigenvalues --   -1.05205  -1.01559  -0.97169  -0.91443  -0.90676
 Alpha  occ. eigenvalues --   -0.88651  -0.85308  -0.80191  -0.79263  -0.77947
 Alpha  occ. eigenvalues --   -0.77707  -0.74537  -0.72502  -0.70974  -0.68567
 Alpha  occ. eigenvalues --   -0.68435  -0.67846  -0.66166  -0.64291  -0.59230
 Alpha  occ. eigenvalues --   -0.57226  -0.56800  -0.56518  -0.54133  -0.53097
 Alpha  occ. eigenvalues --   -0.52432  -0.49982  -0.49731  -0.49014  -0.48421
 Alpha  occ. eigenvalues --   -0.48036  -0.46790  -0.46110  -0.44782  -0.43671
 Alpha  occ. eigenvalues --   -0.43002  -0.42599  -0.42069  -0.42014  -0.41801
 Alpha  occ. eigenvalues --   -0.41404  -0.41311  -0.40579  -0.40044  -0.39606
 Alpha  occ. eigenvalues --   -0.39044  -0.38640  -0.38236  -0.37649  -0.36629
 Alpha  occ. eigenvalues --   -0.36447  -0.36336  -0.35616  -0.35008  -0.34513
 Alpha  occ. eigenvalues --   -0.33825  -0.32803  -0.32564  -0.32199  -0.31318
 Alpha  occ. eigenvalues --   -0.31040  -0.27303  -0.23541  -0.22036  -0.19967
 Alpha virt. eigenvalues --   -0.07528  -0.02891  -0.02366  -0.00359  -0.00102
 Alpha virt. eigenvalues --    0.00083   0.00524   0.00564   0.00933   0.01897
 Alpha virt. eigenvalues --    0.02247   0.02423   0.02637   0.03232   0.03584

 Mulliken charges:
               1
     1  C   -0.225892
     2  N   -0.058148
     3  C   -0.252777
     4  C   -0.130183
     5  N   -0.129924
     6  C   -0.238524
     7  C   -0.007117
     8  C    0.332550
     9  C   -0.543933
    10  N   -0.459764
    11  C    0.810030
    12  C   -0.035232
    13  C    0.137882
    14  C   -0.534373
    15  C   -0.204464
    16  C    0.039876
    17  O   -0.509070
    18  C    0.015887
    19  C   -0.305227
    20  C   -0.362309
    21  C   -0.308393
    22  C   -0.597674
    23  C    0.362536
    24  N   -0.548478
    25  C   -0.129546
    26  H    0.179325
    27  H    0.140238
    28  H    0.166725
    29  H    0.145170
    30  H    0.161080
    31  H    0.161263
    32  H    0.143598
    33  H    0.140867
    34  H    0.165114
    35  H    0.180842
    36  H    0.165829
    37  H    0.168185
    38  H    0.144525
    39  H    0.156010
    40  H    0.183666
    41  H    0.108776
    42  H    0.345122
    43  H    0.124429
    44  H    0.161873
    45  H    0.141448
    46  H    0.141694
    47  H    0.146138
    48  H    0.172825
    49  H    0.137525
 Sum of Mulliken charges =  -0.00000

 Dipole moment (field-independent basis, Debye):
    X=              7.4183    Y=              0.9393    Z=             -0.7468  Tot=              7.5147
 Quadrupole moment (field-independent basis, Debye-Ang):
   XX=           -119.0774   YY=           -179.6558   ZZ=           -151.9957
   XY=             -0.2092   XZ=            -15.0496   YZ=              0.7275

 Normal termination of Gaussian 16 at Mon Aug 25 14:45:41 2025.
