 Gaussian 16, Revision C.02,
 Gaussian 16:  ES64L-G16RevC.02  7-Dec-2021

 ----------------------------------------------------------
 # td=(50-50,nstates=3) b3lyp/6-31+g(d,p) geom=connectivity
 ----------------------------------------------------------

 -------------------
 Title Card Required
 -------------------
 Symbolic Z-matrix:
 Charge =  0 Multiplicity = 1

                         Standard orientation:
 ---------------------------------------------------------------------
 Center     Atomic      Atomic             Coordinates (Angstroms)
 Number     Number       Type             X           Y           Z
 ---------------------------------------------------------------------
      1          6           0        0.367121   -1.188002    2.364946
      2          6           0       -0.192502   -0.459720    1.393315
      3          6           0       -1.342303   -0.827247    0.876763
      4          6           0       -2.403628   -1.166552    0.399904
      5         14           0       -4.057007   -1.695066   -0.342917
      6          6           0       -5.444262   -0.695430    0.438524
      7          6           0       -4.035145   -1.391515   -2.198116
      8          6           0       -4.337796   -3.523744   -0.008835
      9         14           0        0.659956    1.078184    0.771774
     10          6           0       -0.378735    1.865107   -0.583252
     11          6           0       -0.771369    3.276776   -0.167831
     12          6           0       -1.579017    3.220954    1.122188
     13          6           0       -1.613488    3.912678   -1.265924
     14          6           0        0.485089    4.107916    0.055717
     15          6           0        2.335310    0.627754    0.087210
     16          7           0        3.164523    1.540899   -0.427267
     17          8           0        4.272172    0.775141   -0.807699
     18          6           0        3.975522   -0.508445   -0.475570
     19          6           0        4.911615   -1.650701   -0.720295
     20         17           0        4.159278   -3.175703   -0.145650
     21          7           0        2.797514   -0.657880    0.077926
     22          1           0        1.330365   -0.880058    2.797756
     23          1           0       -0.135702   -2.095058    2.731518
     24          1           0       -6.418872   -1.006968    0.000540
     25          1           0       -5.457164   -0.875144    1.536761
     26          1           0       -5.278001    0.387169    0.240687
     27          1           0       -5.009450   -1.702729   -2.637023
     28          1           0       -3.214242   -1.983767   -2.660737
     29          1           0       -3.868840   -0.308747   -2.394720
     30          1           0       -3.474273   -3.934242    0.560744
     31          1           0       -5.269309   -3.652856    0.586392
     32          1           0       -4.436038   -4.066484   -0.975587
     33          1           0        0.211947    1.907093   -1.525697
     34          1           0       -1.297007    1.257682   -0.746658
     35          1           0       -1.865944    4.252542    1.425812
     36          1           0       -0.963641    2.756179    1.924747
     37          1           0       -2.497254    2.613574    0.958864
     38          1           0       -1.900963    4.944408   -0.963363
     39          1           0       -1.023040    3.954102   -2.208568
     40          1           0       -2.531340    3.304604   -1.428542
     41          1           0        1.384349    3.481624   -0.138820
     42          1           0        0.482244    4.977846   -0.638497
     43          1           0        0.507003    4.471545    1.107448
     44          1           0        5.122868   -1.729579   -1.810275
     45          1           0        5.862466   -1.475524   -0.169014
     46          1           0        0.820711    2.044847    1.892789
 ---------------------------------------------------------------------

 SCF Done:  E(RB3LYP) =  -1810.53396102     A.U. after   15 cycles

 Excitation energies and oscillator strengths:

 Excited State   1:      Triplet-A      2.5004 eV  495.87 nm  f=0.0000  <S**2>=2.000
      91 -> 92        -0.47738
      91 -> 93         0.50993
      91 <- 93         0.10627
 This state for optimization and/or second-order correction.
 Total Energy, E(TD-HF/TD-DFT) =  -1810.44207459
 Copying the excited state density for this state as the 1-particle RhoCI density.

 Excited State   2:      Triplet-A      3.7867 eV  327.42 nm  f=0.0000  <S**2>=2.000
      82 -> 92         0.14298
      82 -> 93         0.10585
      85 -> 92         0.14549
      85 -> 93         0.10659
      86 -> 92         0.30017
      86 -> 93         0.21954
      87 -> 92        -0.17749
      87 -> 93        -0.13011
      88 -> 92        -0.10344
      89 -> 92         0.37582
      89 -> 93         0.26050

 Excited State   3:      Triplet-A      3.9530 eV  313.65 nm  f=0.0000  <S**2>=2.000
      90 -> 92         0.50176
      90 -> 93        -0.46321

 Excited State   4:      Singlet-A      4.2093 eV  294.55 nm  f=0.0192  <S**2>=0.000
      91 -> 92         0.63674
      91 -> 93         0.28076

 Excited State   5:      Singlet-A      4.2436 eV  292.17 nm  f=0.0007  <S**2>=0.000
      90 -> 92         0.53908
      90 -> 93        -0.43329

 Excited State   6:      Singlet-A      4.7029 eV  263.64 nm  f=0.2078  <S**2>=0.000
      90 -> 93         0.10875
      90 -> 98         0.10779
      91 -> 92        -0.25604
      91 -> 93         0.60713

 The electronic state is 1-A.
 Alpha  occ. eigenvalues -- -101.56142 -66.14295 -66.13813 -19.27597 -14.41360
 Alpha  occ. eigenvalues --  -14.36431 -10.32271 -10.29418 -10.25437 -10.20804
 Alpha  occ. eigenvalues --  -10.19604 -10.19402 -10.18292 -10.17835 -10.17774
 Alpha  occ. eigenvalues --  -10.17482 -10.17302 -10.17279 -10.17232 -10.17057
 Alpha  occ. eigenvalues --  -10.16753  -9.47643  -7.24129  -7.23026  -7.23011
 Alpha  occ. eigenvalues --   -5.29013  -5.28074  -3.64938  -3.64881  -3.64786
 Alpha  occ. eigenvalues --   -3.64061  -3.63909  -3.63906  -1.18469  -0.96294
 Alpha  occ. eigenvalues --   -0.90141  -0.86087  -0.83371  -0.82617  -0.73600
 Alpha  occ. eigenvalues --   -0.73205  -0.71264  -0.68999  -0.68482  -0.68243
 Alpha  occ. eigenvalues --   -0.67801  -0.67669  -0.65365  -0.62631  -0.62341
 Alpha  occ. eigenvalues --   -0.56164  -0.52649  -0.52467  -0.51437  -0.49576
 Alpha  occ. eigenvalues --   -0.47402  -0.47219  -0.45971  -0.45436  -0.45111
 Alpha  occ. eigenvalues --   -0.44583  -0.44016  -0.42685  -0.42301  -0.41559
 Alpha  occ. eigenvalues --   -0.41286  -0.41200  -0.39734  -0.39594  -0.39522
 Alpha  occ. eigenvalues --   -0.38232  -0.37682  -0.36915  -0.36604  -0.36087
 Alpha  occ. eigenvalues --   -0.35635  -0.35294  -0.34518  -0.34392  -0.33684
 Alpha  occ. eigenvalues --   -0.33536  -0.32187  -0.31988  -0.31794  -0.30769
 Alpha  occ. eigenvalues --   -0.30490  -0.30435  -0.30210  -0.28589  -0.25849
 Alpha  occ. eigenvalues --   -0.23703
 Alpha virt. eigenvalues --   -0.06320  -0.05247  -0.02445  -0.01170  -0.00321
 Alpha virt. eigenvalues --    0.00003   0.00494   0.00807   0.01251   0.01659
 Alpha virt. eigenvalues --    0.02409   0.02906   0.02969   0.03380   0.03919

 Mulliken charges:
               1
     1  C   -0.501206
     2  C   -0.445980
     3  C    0.502866
     4  C   -0.819672
     5  Si   1.313376
     6  C   -0.684584
     7  C   -0.679103
     8  C   -0.754110
     9  Si   1.401231
    10  C   -0.795592
    11  C    0.605778
    12  C   -0.530947
    13  C   -0.485629
    14  C   -0.659210
    15  C   -0.525145
    16  N   -0.310219
    17  O    0.108477
    18  C    0.047721
    19  C   -0.400208
    20  Cl  -0.001377
    21  N   -0.087807
    22  H    0.127932
    23  H    0.144395
    24  H    0.160054
    25  H    0.163591
    26  H    0.159255
    27  H    0.160052
    28  H    0.164267
    29  H    0.159552
    30  H    0.180708
    31  H    0.164154
    32  H    0.164795
    33  H    0.165408
    34  H    0.169819
    35  H    0.145140
    36  H    0.132506
    37  H    0.146529
    38  H    0.142697
    39  H    0.145851
    40  H    0.138727
    41  H    0.155462
    42  H    0.142560
    43  H    0.153996
    44  H    0.215876
    45  H    0.215618
    46  H   -0.117603
 Sum of Mulliken charges =  -0.00000

 Dipole moment (field-independent basis, Debye):
    X=              0.5550    Y=             -0.4695    Z=             -0.5294  Tot=              0.8993
 Quadrupole moment (field-independent basis, Debye-Ang):
   XX=           -136.0803   YY=           -159.5289   ZZ=           -150.1973
   XY=             -2.8323   XZ=             -0.4965   YZ=              1.9713

 Normal termination of Gaussian 16 at Thu Oct  2 13:06:33 2025.
