 Gaussian 16, Revision C.02,
 Gaussian 16:  ES64L-G16RevC.02  7-Dec-2021

 ----------------------------------------------------------
 # td=(50-50,nstates=3) b3lyp/6-31+g(d,p) geom=connectivity
 ----------------------------------------------------------

 -------------------
 Title Card Required
 -------------------
 Symbolic Z-matrix:
 Charge =  0 Multiplicity = 1

                         Standard orientation:
 ---------------------------------------------------------------------
 Center     Atomic      Atomic             Coordinates (Angstroms)
 Number     Number       Type             X           Y           Z
 ---------------------------------------------------------------------
      1          6           0       -0.049918    4.085576    1.239578
      2          6           0        0.480893    2.801159    0.566000
      3          6           0        1.002353    3.169107   -0.837791
      4          6           0        1.610986    2.217819    1.439750
      5          7           0       -0.668256    1.881314    0.548206
      6          6           0       -0.892197    0.844726   -0.158802
      7          6           0       -2.196688    0.153905   -0.098251
      8          6           0       -3.327590    0.448322    0.665739
      9          6           0       -4.477156   -0.324094    0.493524
     10          6           0       -4.485717   -1.375689   -0.439227
     11          6           0       -3.357430   -1.685214   -1.202436
     12          6           0       -2.208138   -0.908295   -1.014565
     13          7           0       -0.954120   -1.068261   -1.596641
     14          6           0       -0.073528    0.073092   -1.263419
     15          6           0        1.336730   -0.423731   -0.963587
     16          6           0        2.353608   -0.093850   -1.869662
     17          6           0        3.664561   -0.545510   -1.703612
     18          6           0        3.973036   -1.353796   -0.612322
     19          6           0        2.968164   -1.709031    0.291555
     20          6           0        1.652586   -1.262078    0.131075
     21          6           0        0.562362   -1.673246    1.115552
     22          6           0        0.998470   -2.596191    2.165394
     23          7           0        1.330707   -3.328602    3.003103
     24          1           0       -0.442315    3.855331    2.234434
     25          1           0        0.745404    4.832613    1.337635
     26          1           0       -0.863922    4.519315    0.649531
     27          1           0        1.520844    2.340341   -1.321292
     28          1           0        1.716191    3.996314   -0.760445
     29          1           0        0.178335    3.498679   -1.480490
     30          1           0        2.399422    2.965955    1.577442
     31          1           0        1.225374    1.947429    2.428097
     32          1           0        2.060407    1.332350    0.985356
     33          1           0       -3.295751    1.276677    1.366512
     34          1           0       -5.369464   -0.111180    1.073645
     35          1           0       -5.388438   -1.966013   -0.569536
     36          1           0       -3.371074   -2.507651   -1.911865
     37          1           0       -0.891338   -1.438218   -2.535883
     38          1           0       -0.009093    0.750479   -2.125564
     39          1           0        2.112101    0.529950   -2.726779
     40          1           0        4.429902   -0.269200   -2.422612
     41          1           0        4.985446   -1.716181   -0.461859
     42          1           0        3.211592   -2.348748    1.134100
     43          1           0        0.138038   -0.790345    1.608681
     44          1           0       -0.262304   -2.146931    0.571261
 ---------------------------------------------------------------------

 SCF Done:  E(RB3LYP) =  -939.068653477     A.U. after   17 cycles

 Excitation energies and oscillator strengths:

 Excited State   1:      Triplet-A      2.7670 eV  448.09 nm  f=0.0000  <S**2>=2.000
      79 -> 82        -0.25226
      81 -> 82         0.63168
      81 -> 86         0.11761
 This state for optimization and/or second-order correction.
 Total Energy, E(TD-HF/TD-DFT) =  -938.966968969
 Copying the excited state density for this state as the 1-particle RhoCI density.

 Excited State   2:      Triplet-A      3.2439 eV  382.21 nm  f=0.0000  <S**2>=2.000
      80 -> 82         0.66887
      80 -> 93         0.10665

 Excited State   3:      Triplet-A      3.4240 eV  362.10 nm  f=0.0000  <S**2>=2.000
      79 -> 82         0.52088
      79 -> 86        -0.11798
      81 -> 82         0.27518
      81 -> 86        -0.28378

 Excited State   4:      Singlet-A      3.6629 eV  338.48 nm  f=0.1076  <S**2>=0.000
      80 -> 82         0.13089
      81 -> 82         0.67865

 Excited State   5:      Singlet-A      3.7789 eV  328.09 nm  f=0.0043  <S**2>=0.000
      80 -> 82         0.68173
      81 -> 82        -0.13137

 Excited State   6:      Singlet-A      4.2133 eV  294.27 nm  f=0.0072  <S**2>=0.000
      81 -> 83         0.70318

 The electronic state is 1-A.
 Alpha  occ. eigenvalues --  -14.37132 -14.34323 -14.33019 -10.25929 -10.25472
 Alpha  occ. eigenvalues --  -10.24378 -10.24264 -10.23723 -10.23534 -10.23070
 Alpha  occ. eigenvalues --  -10.22514 -10.21414 -10.21199 -10.21139 -10.20964
 Alpha  occ. eigenvalues --  -10.20868 -10.20400 -10.20320 -10.19907 -10.19666
 Alpha  occ. eigenvalues --  -10.18393 -10.18028 -10.17307  -0.97713  -0.92197
 Alpha  occ. eigenvalues --   -0.91320  -0.88380  -0.85552  -0.81271  -0.80936
 Alpha  occ. eigenvalues --   -0.78874  -0.76124  -0.74684  -0.73607  -0.71158
 Alpha  occ. eigenvalues --   -0.69582  -0.68746  -0.64813  -0.63016  -0.62032
 Alpha  occ. eigenvalues --   -0.60077  -0.59396  -0.55227  -0.53762  -0.51785
 Alpha  occ. eigenvalues --   -0.51542  -0.50077  -0.48794  -0.48296  -0.47918
 Alpha  occ. eigenvalues --   -0.46887  -0.45511  -0.45230  -0.44890  -0.44757
 Alpha  occ. eigenvalues --   -0.44362  -0.43970  -0.43335  -0.41631  -0.40166
 Alpha  occ. eigenvalues --   -0.39653  -0.39450  -0.38372  -0.37913  -0.37229
 Alpha  occ. eigenvalues --   -0.37156  -0.36996  -0.36801  -0.36195  -0.35704
 Alpha  occ. eigenvalues --   -0.35367  -0.33585  -0.33492  -0.33267  -0.32262
 Alpha  occ. eigenvalues --   -0.30975  -0.27366  -0.26807  -0.25587  -0.24060
 Alpha  occ. eigenvalues --   -0.21717
 Alpha virt. eigenvalues --   -0.05977  -0.03753  -0.03151  -0.01343  -0.00926
 Alpha virt. eigenvalues --    0.00176   0.00550   0.00924   0.01366   0.02060
 Alpha virt. eigenvalues --    0.02227   0.02659   0.02828   0.03067   0.03217

 Mulliken charges:
               1
     1  C   -0.325029
     2  C    0.064361
     3  C   -0.489353
     4  C   -0.476885
     5  N    0.039483
     6  C   -0.023077
     7  C    1.141199
     8  C   -0.814086
     9  C   -0.055942
    10  C   -0.266617
    11  C   -0.018044
    12  C   -0.744380
    13  N   -0.329436
    14  C   -0.647090
    15  C    0.929814
    16  C   -0.159967
    17  C   -0.143791
    18  C   -0.404839
    19  C   -0.492595
    20  C    0.541542
    21  C   -0.043369
    22  C   -0.052854
    23  N   -0.517774
    24  H    0.154818
    25  H    0.136758
    26  H    0.150090
    27  H    0.135232
    28  H    0.147504
    29  H    0.150027
    30  H    0.145678
    31  H    0.150696
    32  H    0.165071
    33  H    0.147223
    34  H    0.126192
    35  H    0.127409
    36  H    0.120747
    37  H    0.310566
    38  H    0.151473
    39  H    0.112170
    40  H    0.130861
    41  H    0.133870
    42  H    0.147828
    43  H    0.219101
    44  H    0.225417
 Sum of Mulliken charges =  -0.00000

 Dipole moment (field-independent basis, Debye):
    X=              0.0845    Y=              2.0413    Z=             -5.1156  Tot=              5.5085
 Quadrupole moment (field-independent basis, Debye-Ang):
   XX=           -129.2025   YY=           -149.7443   ZZ=           -142.9507
   XY=              9.1128   XZ=             -5.8619   YZ=             13.7937

 Normal termination of Gaussian 16 at Mon Aug 25 14:40:03 2025.
