 Gaussian 16, Revision C.02,
 Gaussian 16:  ES64L-G16RevC.02  7-Dec-2021

 ----------------------------------------------------------
 # td=(50-50,nstates=3) b3lyp/6-31+g(d,p) geom=connectivity
 ----------------------------------------------------------

 -------------------
 Title Card Required
 -------------------
 Symbolic Z-matrix:
 Charge =  0 Multiplicity = 1

                         Standard orientation:
 ---------------------------------------------------------------------
 Center     Atomic      Atomic             Coordinates (Angstroms)
 Number     Number       Type             X           Y           Z
 ---------------------------------------------------------------------
      1          6           0        6.425370    0.008440    0.657348
      2          7           0        5.032294   -0.035193    0.229441
      3          6           0        4.563017   -1.137674   -0.466914
      4          6           0        3.360174   -1.160236   -1.084091
      5          6           0        2.372807   -0.010195   -0.946995
      6          6           0        1.348971   -0.619079    0.022577
      7          6           0        0.095070   -0.954149   -0.489917
      8          6           0       -1.183182   -1.650683   -0.087259
      9          8           0       -1.495060   -2.655953    0.511789
     10          6           0       -1.958568   -0.403520   -0.516625
     11          6           0       -3.287761    0.027598   -0.315131
     12          6           0       -3.830384    1.290392   -0.556566
     13          6           0       -5.200301    1.376162   -0.220345
     14          6           0       -5.707731    0.186375    0.257298
     15         16           0       -4.518194   -1.061629    0.324361
     16          6           0       -0.720499    0.238349   -0.718147
     17          6           0       -0.310541    1.450569    0.096624
     18          8           0       -0.762880    2.580663   -0.037266
     19          6           0        0.502994    1.047627    1.321367
     20          6           0        1.218434   -0.110121    1.402242
     21          6           0        3.116113    1.225719   -0.503909
     22          6           0        4.328801    1.161275    0.074920
     23          1           0        6.727715   -0.978608    1.014648
     24          1           0        7.100512    0.312316   -0.155561
     25          1           0        6.531973    0.714445    1.484626
     26          1           0        5.241848   -1.983216   -0.511996
     27          1           0        3.056918   -2.044788   -1.631562
     28          1           0        1.850742    0.154972   -1.901664
     29          1           0       -3.236850    2.104461   -0.955751
     30          1           0       -5.796901    2.273641   -0.334746
     31          1           0       -6.723663   -0.022463    0.565347
     32          1           0        0.426574    1.749983    2.149098
     33          1           0        1.664375   -0.488203    2.319034
     34          1           0        2.645774    2.195100   -0.628258
     35          1           0        4.842860    2.046010    0.435870
 ---------------------------------------------------------------------

 SCF Done:  E(RB3LYP) =  -1296.91261597     A.U. after   19 cycles

 Excitation energies and oscillator strengths:

 Excited State   1:      Triplet-A      -0.7856 eV    -1578.12 nm  f=-0.0000  <S**2>=2.000
      80 -> 82         0.68905
      80 <- 82         0.13504
 This state for optimization and/or second-order correction.
 Total Energy, E(TD-HF/TD-DFT) =  -1296.94148783
 Copying the excited state density for this state as the 1-particle RhoCI density.

 Excited State   2:      Triplet-A      0.7697 eV 1610.84 nm  f=0.0000  <S**2>=2.000
      80 -> 81         0.70801
      80 <- 81         0.15676

 Excited State   3:      Singlet-A      1.4229 eV  871.34 nm  f=0.0047  <S**2>=0.000
      80 -> 81         0.65206
      80 -> 82        -0.24811

 Excited State   4:      Triplet-A      1.6633 eV  745.43 nm  f=0.0000  <S**2>=2.000
      79 -> 81        -0.28937
      79 -> 82         0.63789

 Excited State   5:      Singlet-A      1.8601 eV  666.53 nm  f=0.1492  <S**2>=0.000
      79 -> 82        -0.14500
      80 -> 81         0.24210
      80 -> 82         0.63700
      80 <- 82        -0.12993

 Excited State   6:      Singlet-A      2.0636 eV  600.81 nm  f=0.1091  <S**2>=0.000
      79 -> 82         0.68600
      80 -> 82         0.14624

 The electronic state is 1-A.
 Alpha  occ. eigenvalues --  -88.92620 -19.16113 -19.15523 -14.39492 -10.29858
 Alpha  occ. eigenvalues --  -10.29545 -10.24520 -10.24187 -10.24148 -10.23942
 Alpha  occ. eigenvalues --  -10.23917 -10.23797 -10.23679 -10.23576 -10.23433
 Alpha  occ. eigenvalues --  -10.22135 -10.21965 -10.21275 -10.21227 -10.21064
 Alpha  occ. eigenvalues --  -10.20156 -10.19539  -7.98506  -5.94923  -5.94548
 Alpha  occ. eigenvalues --   -5.94230  -1.05558  -1.04960  -0.98680  -0.91947
 Alpha  occ. eigenvalues --   -0.89411  -0.85181  -0.81468  -0.77934  -0.76483
 Alpha  occ. eigenvalues --   -0.75096  -0.74929  -0.71345  -0.68602  -0.65671
 Alpha  occ. eigenvalues --   -0.64236  -0.63321  -0.60371  -0.57473  -0.54551
 Alpha  occ. eigenvalues --   -0.54068  -0.53190  -0.52051  -0.50695  -0.50006
 Alpha  occ. eigenvalues --   -0.48677  -0.47833  -0.47274  -0.46695  -0.46018
 Alpha  occ. eigenvalues --   -0.45025  -0.44891  -0.43985  -0.43372  -0.42452
 Alpha  occ. eigenvalues --   -0.42148  -0.41310  -0.40797  -0.39820  -0.39194
 Alpha  occ. eigenvalues --   -0.39006  -0.38108  -0.37568  -0.36625  -0.35767
 Alpha  occ. eigenvalues --   -0.35216  -0.31882  -0.29467  -0.28159  -0.27004
 Alpha  occ. eigenvalues --   -0.26845  -0.26559  -0.25374  -0.20601  -0.18739
 Alpha virt. eigenvalues --   -0.10682  -0.10481  -0.05277  -0.02253  -0.01006
 Alpha virt. eigenvalues --   -0.00967   0.00237   0.00792   0.01101   0.01337
 Alpha virt. eigenvalues --    0.01598   0.02085   0.02499   0.03094   0.03144

 Mulliken charges:
               1
     1  C   -0.154778
     2  N    0.026841
     3  C    0.000866
     4  C   -0.201096
     5  C   -0.043238
     6  C    0.157944
     7  C   -0.208277
     8  C   -0.364709
     9  O   -0.448266
    10  C    1.144622
    11  C   -0.272318
    12  C    0.257275
    13  C   -0.311265
    14  C   -0.122320
    15  S    0.125686
    16  C    0.161017
    17  C   -0.717181
    18  O   -0.411687
    19  C    0.430102
    20  C   -0.797989
    21  C   -0.077761
    22  C   -0.072151
    23  H    0.150160
    24  H    0.161314
    25  H    0.151962
    26  H    0.128348
    27  H    0.138555
    28  H    0.144612
    29  H    0.166336
    30  H    0.141887
    31  H    0.163200
    32  H    0.151242
    33  H    0.139495
    34  H    0.135667
    35  H    0.125909
 Sum of Mulliken charges =  -0.00000

 Dipole moment (field-independent basis, Debye):
    X=              4.2008    Y=              1.0720    Z=              0.8984  Tot=              4.4275
 Quadrupole moment (field-independent basis, Debye-Ang):
   XX=            -87.3564   YY=           -147.9612   ZZ=           -135.1672
   XY=             -6.4646   XZ=              5.9325   YZ=              3.3216

 Normal termination of Gaussian 16 at Thu Sep  4 15:48:19 2025.
