 Gaussian 16, Revision C.02,
 Gaussian 16:  ES64L-G16RevC.02  7-Dec-2021

 ----------------------------------------------------------
 # td=(50-50,nstates=3) b3lyp/6-31+g(d,p) geom=connectivity
 ----------------------------------------------------------

 -------------------
 Title Card Required
 -------------------
 Symbolic Z-matrix:
 Charge =  0 Multiplicity = 1

                         Standard orientation:
 ---------------------------------------------------------------------
 Center     Atomic      Atomic             Coordinates (Angstroms)
 Number     Number       Type             X           Y           Z
 ---------------------------------------------------------------------
      1          6           0       -9.530166   -1.684874    0.000453
      2          8           0       -8.540367   -0.670425    0.000363
      3          6           0       -7.220997   -1.183400    0.000191
      4          6           0       -6.284154    0.017170    0.000070
      5          8           0       -4.963588   -0.542520   -0.000099
      6          6           0       -3.789074    0.127556   -0.000108
      7          6           0       -2.648454   -0.706064   -0.000088
      8         35           0       -2.894119   -2.592687   -0.000164
      9          6           0       -1.349653   -0.214468   -0.000127
     10          6           0       -1.113929    1.163815   -0.000113
     11          6           0        0.277489    1.771248   -0.000128
     12          6           0        1.425247    0.759712   -0.000070
     13          7           0        2.688600    1.486962   -0.000006
     14          6           0        3.996177    1.042265    0.000047
     15          6           0        4.999682    2.045787    0.000073
     16          6           0        6.355846    1.765312    0.000085
     17          6           0        6.775143    0.434411    0.000030
     18         35           0        8.632901    0.009693    0.000118
     19          6           0        5.833905   -0.584376    0.000015
     20          6           0        4.467177   -0.288681    0.000042
     21         35           0        3.320073   -1.827252   -0.000040
     22          6           0       -2.225906    2.007342   -0.000096
     23          6           0       -3.532098    1.513037   -0.000113
     24         35           0       -4.898129    2.861476   -0.000046
     25          1           0      -10.500840   -1.184867    0.000597
     26          1           0       -9.451627   -2.320802   -0.894187
     27          1           0       -9.451396   -2.320870    0.895024
     28          1           0       -7.037559   -1.803961    0.891065
     29          1           0       -7.037790   -1.803959   -0.890732
     30          1           0       -6.451235    0.625887   -0.891404
     31          1           0       -6.451005    0.625887    0.891588
     32          1           0       -0.532784   -0.925163   -0.000146
     33          1           0        0.379378    2.421184   -0.880662
     34          1           0        0.379351    2.421260    0.880353
     35          1           0        1.349467    0.118954    0.884733
     36          1           0        1.349568    0.118955   -0.884879
     37          1           0        2.603327    2.491754    0.000103
     38          1           0        4.681382    3.085792    0.000082
     39          1           0        7.077743    2.574188    0.000125
     40          1           0        6.148244   -1.620631   -0.000002
     41          1           0       -2.085626    3.083406   -0.000075
 ---------------------------------------------------------------------

 SCF Done:  E(RB3LYP) =  -11150.1794580     A.U. after   16 cycles

 Excitation energies and oscillator strengths:

 Excited State   1:      Triplet-A      3.2779 eV  378.24 nm  f=0.0000  <S**2>=2.000
     138 ->144         0.24570
     141 ->144        -0.44565
     141 ->147         0.45638
 This state for optimization and/or second-order correction.
 Total Energy, E(TD-HF/TD-DFT) =  -11150.0589971
 Copying the excited state density for this state as the 1-particle RhoCI density.

 Excited State   2:      Triplet-A      3.4047 eV  364.15 nm  f=0.0000  <S**2>=2.000
     138 ->144         0.12588
     141 ->144         0.53196
     141 ->146         0.14138
     141 ->147         0.39546

 Excited State   3:      Triplet-A      3.7569 eV  330.02 nm  f=0.0000  <S**2>=2.000
     141 ->145         0.68549

 Excited State   4:      Singlet-A      4.0113 eV  309.08 nm  f=0.0000  <S**2>=0.000
     141 ->145         0.70091

 Excited State   5:      Singlet-A      4.1338 eV  299.93 nm  f=0.0450  <S**2>=0.000
     138 ->147        -0.14788
     141 ->142        -0.15339
     141 ->144         0.66885

 Excited State   6:      Singlet-A      4.1559 eV  298.34 nm  f=0.0656  <S**2>=0.000
     141 ->142         0.68774
     141 ->144         0.15011

 The electronic state is 1-A.
 Alpha  occ. eigenvalues -- -482.94807-482.94051-482.93934-482.93281 -61.90664
 Alpha  occ. eigenvalues --  -61.89907 -61.89762 -61.89178 -56.42194 -56.41807
 Alpha  occ. eigenvalues --  -56.41757 -56.41419 -56.41295 -56.41053 -56.40993
 Alpha  occ. eigenvalues --  -56.40911 -56.40868 -56.40742 -56.40369 -56.40318
 Alpha  occ. eigenvalues --  -19.20638 -19.17126 -14.37506 -10.29323 -10.27019
 Alpha  occ. eigenvalues --  -10.26691 -10.26213 -10.25952 -10.25696 -10.25019
 Alpha  occ. eigenvalues --  -10.24706 -10.24258 -10.24050 -10.22733 -10.22229
 Alpha  occ. eigenvalues --  -10.22075 -10.21994 -10.21924 -10.21687 -10.21425
 Alpha  occ. eigenvalues --   -8.60925  -8.60157  -8.60004  -8.59533  -6.56113
 Alpha  occ. eigenvalues --   -6.55323  -6.55194  -6.54805  -6.54781  -6.54714
 Alpha  occ. eigenvalues --   -6.54039  -6.54029  -6.53907  -6.53835  -6.53434
 Alpha  occ. eigenvalues --   -6.53429  -2.67651  -2.67280  -2.67263  -2.66866
 Alpha  occ. eigenvalues --   -2.66734  -2.66497  -2.66491  -2.66377  -2.66322
 Alpha  occ. eigenvalues --   -2.66262  -2.66219  -2.66218  -2.65890  -2.65888
 Alpha  occ. eigenvalues --   -2.65466  -2.65466  -2.65294  -2.65292  -2.64865
 Alpha  occ. eigenvalues --   -2.64865  -1.09229  -1.05018  -0.96342  -0.90147
 Alpha  occ. eigenvalues --   -0.88604  -0.83877  -0.83310  -0.82437  -0.80315
 Alpha  occ. eigenvalues --   -0.79204  -0.77542  -0.74689  -0.74340  -0.73562
 Alpha  occ. eigenvalues --   -0.71634  -0.69122  -0.66343  -0.63889  -0.63262
 Alpha  occ. eigenvalues --   -0.61764  -0.60013  -0.59903  -0.55854  -0.55312
 Alpha  occ. eigenvalues --   -0.52610  -0.51509  -0.50479  -0.49798  -0.49356
 Alpha  occ. eigenvalues --   -0.48240  -0.47312  -0.47166  -0.46803  -0.45921
 Alpha  occ. eigenvalues --   -0.45071  -0.44906  -0.43523  -0.43284  -0.43200
 Alpha  occ. eigenvalues --   -0.42153  -0.41013  -0.39932  -0.39461  -0.38952
 Alpha  occ. eigenvalues --   -0.38650  -0.38036  -0.37185  -0.36997  -0.35482
 Alpha  occ. eigenvalues --   -0.35265  -0.34583  -0.33831  -0.33826  -0.32948
 Alpha  occ. eigenvalues --   -0.30721  -0.30082  -0.29849  -0.29250  -0.29173
 Alpha  occ. eigenvalues --   -0.28656  -0.27456  -0.26150  -0.25573  -0.23834
 Alpha  occ. eigenvalues --   -0.21127
 Alpha virt. eigenvalues --   -0.04237  -0.03985  -0.03531  -0.03138  -0.02655
 Alpha virt. eigenvalues --   -0.01743  -0.01522  -0.00397  -0.00193  -0.00079
 Alpha virt. eigenvalues --    0.00452   0.00766   0.01502   0.01851   0.02066

 Mulliken charges:
               1
     1  C   -0.158255
     2  O   -0.345674
     3  C   -0.276963
     4  C    0.111156
     5  O   -0.336425
     6  C   -1.788954
     7  C   -0.496165
     8  Br   0.058540
     9  C   -0.157903
    10  C    0.527493
    11  C   -0.821969
    12  C   -0.292186
    13  N   -0.339204
    14  C   -1.087800
    15  C    0.367209
    16  C   -0.509847
    17  C    0.273719
    18  Br   0.001328
    19  C   -0.434622
    20  C    1.086797
    21  Br   0.068671
    22  C    1.034419
    23  C    0.815972
    24  Br   0.042820
    25  H    0.146784
    26  H    0.128404
    27  H    0.128403
    28  H    0.134412
    29  H    0.134410
    30  H    0.160524
    31  H    0.160518
    32  H    0.151073
    33  H    0.171339
    34  H    0.171323
    35  H    0.163714
    36  H    0.163718
    37  H    0.291500
    38  H    0.109761
    39  H    0.144516
    40  H    0.158939
    41  H    0.138506
 Sum of Mulliken charges =  -0.00000

 Dipole moment (field-independent basis, Debye):
    X=             -2.8778    Y=              2.2537    Z=              0.0002  Tot=              3.6553
 Quadrupole moment (field-independent basis, Debye-Ang):
   XX=           -201.8891   YY=           -182.8219   ZZ=           -197.9010
   XY=             18.4970   XZ=             -0.0009   YZ=              0.0000

 Normal termination of Gaussian 16 at Thu Sep  4 20:37:46 2025.
