 Gaussian 16, Revision C.02,
 Gaussian 16:  ES64L-G16RevC.02  7-Dec-2021

 ----------------------------------------------------------
 # td=(50-50,nstates=3) b3lyp/6-31+g(d,p) geom=connectivity
 ----------------------------------------------------------

 -------------------
 Title Card Required
 -------------------
 Symbolic Z-matrix:
 Charge =  0 Multiplicity = 1

                         Standard orientation:
 ---------------------------------------------------------------------
 Center     Atomic      Atomic             Coordinates (Angstroms)
 Number     Number       Type             X           Y           Z
 ---------------------------------------------------------------------
      1          6           0       -2.285722   -2.396050   -1.945965
      2          6           0       -0.961259   -2.461922   -1.241243
      3          6           0       -0.237708   -1.478057   -0.650175
      4          6           0        1.125242   -1.738730   -0.194753
      5          6           0        2.005121   -0.737764   -0.051243
      6          6           0        3.472143   -0.799863    0.336357
      7          6           0        3.918653   -2.259225    0.541153
      8          6           0        4.324845   -0.164028   -0.788815
      9          6           0        3.689864   -0.017369    1.654630
     10          8           0        1.599279    0.573091   -0.289704
     11          6           0        0.283499    0.919432   -0.364138
     12          6           0        0.118426    2.452710   -0.310549
     13          6           0        1.486447    3.142447   -0.100865
     14          6           0       -0.459031    2.950022   -1.661153
     15          6           0       -0.796022    2.883760    0.863362
     16          6           0       -0.663647   -0.067618   -0.461724
     17          6           0       -2.101117    0.207495   -0.237028
     18          8           0       -2.811354    0.994642   -0.833606
     19          6           0       -2.792777   -0.525400    0.972324
     20          9           0       -3.283440    0.420013    1.807927
     21          9           0       -3.832428   -1.282824    0.564920
     22          9           0       -1.969433   -1.306607    1.700468
     23          1           0       -2.200959   -2.887223   -2.923478
     24          1           0       -3.072564   -2.927678   -1.396199
     25          1           0       -2.636048   -1.377382   -2.123274
     26          1           0       -0.486626   -3.443027   -1.259401
     27          1           0        1.437829   -2.762145   -0.028357
     28          1           0        4.978656   -2.278954    0.813645
     29          1           0        3.359737   -2.745810    1.347245
     30          1           0        3.798703   -2.852027   -0.371650
     31          1           0        5.384869   -0.194755   -0.514318
     32          1           0        4.047582    0.879606   -0.958143
     33          1           0        4.200684   -0.708814   -1.730861
     34          1           0        3.403891    1.031979    1.546582
     35          1           0        3.102613   -0.452018    2.470562
     36          1           0        4.747185   -0.052846    1.939183
     37          1           0        1.326159    4.225019   -0.094295
     38          1           0        1.945875    2.863996    0.851487
     39          1           0        2.192605    2.910404   -0.901767
     40          1           0       -0.535335    4.042919   -1.639415
     41          1           0       -1.447889    2.534869   -1.855397
     42          1           0        0.204397    2.676488   -2.489245
     43          1           0       -0.416806    2.501331    1.817026
     44          1           0       -0.802036    3.977405    0.921695
     45          1           0       -1.829949    2.562496    0.743974
 ---------------------------------------------------------------------

 SCF Done:  E(RB3LYP) =  -1111.66645653     A.U. after   15 cycles

 Excitation energies and oscillator strengths:

 Excited State   1:      Triplet-A      2.3458 eV  528.54 nm  f=0.0000  <S**2>=2.000
      83 -> 85         0.11687
      84 -> 85         0.68060
      84 -> 87         0.12483
 This state for optimization and/or second-order correction.
 Total Energy, E(TD-HF/TD-DFT) =  -1111.58024994
 Copying the excited state density for this state as the 1-particle RhoCI density.

 Excited State   2:      Triplet-A      2.7455 eV  451.59 nm  f=0.0000  <S**2>=2.000
      83 -> 85         0.10529
      84 -> 86         0.58999
      84 -> 87        -0.33050

 Excited State   3:      Singlet-A      2.9080 eV  426.36 nm  f=0.0404  <S**2>=0.000
      84 -> 85         0.70503

 Excited State   4:      Triplet-A      3.3911 eV  365.62 nm  f=0.0000  <S**2>=2.000
      82 -> 85         0.52376
      83 -> 85        -0.44173

 Excited State   5:      Singlet-A      3.9550 eV  313.49 nm  f=0.0014  <S**2>=0.000
      82 -> 85         0.49475
      83 -> 85        -0.45725
      84 -> 86         0.16432

 Excited State   6:      Singlet-A      4.0619 eV  305.24 nm  f=0.0138  <S**2>=0.000
      82 -> 85        -0.17377
      84 -> 86         0.52168
      84 -> 87         0.43403

 The electronic state is 1-A.
 Alpha  occ. eigenvalues --  -24.75237 -24.75207 -24.75019 -19.22788 -19.17960
 Alpha  occ. eigenvalues --  -10.45080 -10.31853 -10.29282 -10.26551 -10.22900
 Alpha  occ. eigenvalues --  -10.22758 -10.22356 -10.21845 -10.20424 -10.19668
 Alpha  occ. eigenvalues --  -10.19293 -10.19027 -10.19001 -10.18755 -10.18642
 Alpha  occ. eigenvalues --  -10.18626 -10.18094  -1.32417  -1.23838  -1.23571
 Alpha  occ. eigenvalues --   -1.11683  -1.07946  -0.86157  -0.85418  -0.82906
 Alpha  occ. eigenvalues --   -0.78374  -0.76464  -0.74654  -0.70884  -0.70115
 Alpha  occ. eigenvalues --   -0.70017  -0.69558  -0.68663  -0.67609  -0.63613
 Alpha  occ. eigenvalues --   -0.61707  -0.60251  -0.60160  -0.57067  -0.56144
 Alpha  occ. eigenvalues --   -0.55801  -0.51959  -0.50256  -0.48678  -0.48140
 Alpha  occ. eigenvalues --   -0.47923  -0.47869  -0.47362  -0.45983  -0.45485
 Alpha  occ. eigenvalues --   -0.45176  -0.44497  -0.44093  -0.43891  -0.43626
 Alpha  occ. eigenvalues --   -0.42927  -0.42631  -0.42090  -0.41371  -0.40977
 Alpha  occ. eigenvalues --   -0.40406  -0.40087  -0.39712  -0.39312  -0.38914
 Alpha  occ. eigenvalues --   -0.38280  -0.38012  -0.37307  -0.36596  -0.35925
 Alpha  occ. eigenvalues --   -0.35124  -0.34592  -0.34336  -0.33901  -0.33623
 Alpha  occ. eigenvalues --   -0.32417  -0.28890  -0.27564  -0.20768
 Alpha virt. eigenvalues --   -0.07650  -0.03068  -0.01897  -0.00852   0.00510
 Alpha virt. eigenvalues --    0.01006   0.01705   0.02236   0.02625   0.02755
 Alpha virt. eigenvalues --    0.03231   0.03590   0.04251   0.04624   0.05182

 Mulliken charges:
               1
     1  C   -0.679140
     2  C    0.191951
     3  C    0.200390
     4  C   -0.282336
     5  C    0.400251
     6  C    0.014851
     7  C   -0.544317
     8  C   -0.473566
     9  C   -0.460632
    10  O   -0.262429
    11  C    0.010760
    12  C   -0.063726
    13  C   -0.431429
    14  C   -0.443474
    15  C   -0.438320
    16  C    0.107489
    17  C   -0.273860
    18  O   -0.305558
    19  C    1.075155
    20  F   -0.301075
    21  F   -0.291841
    22  F   -0.289468
    23  H    0.152623
    24  H    0.172518
    25  H    0.164491
    26  H    0.119081
    27  H    0.134785
    28  H    0.152239
    29  H    0.156769
    30  H    0.156217
    31  H    0.147939
    32  H    0.160044
    33  H    0.155453
    34  H    0.154643
    35  H    0.155785
    36  H    0.149197
    37  H    0.145148
    38  H    0.149285
    39  H    0.156388
    40  H    0.145266
    41  H    0.192477
    42  H    0.146505
    43  H    0.152014
    44  H    0.149281
    45  H    0.172178
 Sum of Mulliken charges =  -0.00000

 Dipole moment (field-independent basis, Debye):
    X=              4.4474    Y=             -0.4266    Z=             -0.3413  Tot=              4.4808
 Quadrupole moment (field-independent basis, Debye-Ang):
   XX=           -138.7087   YY=           -126.4996   ZZ=           -135.8280
   XY=              0.2431   XZ=              2.9357   YZ=              2.8680

 Normal termination of Gaussian 16 at Thu Sep  4 16:00:13 2025.
