 Gaussian 16, Revision C.02,
 Gaussian 16:  ES64L-G16RevC.02  7-Dec-2021

 -------------------------------------
 # b3lyp/6-31+g(d,p) geom=connectivity
 -------------------------------------

 -------------------
 Title Card Required
 -------------------
 Symbolic Z-matrix:
 Charge =  0 Multiplicity = 1

                         Standard orientation:
 ---------------------------------------------------------------------
 Center     Atomic      Atomic             Coordinates (Angstroms)
 Number     Number       Type             X           Y           Z
 ---------------------------------------------------------------------
      1          6           0       -5.578571   -0.543401   -1.211742
      2          8           0       -4.740835   -1.365983   -0.381919
      3          6           0       -3.407500   -1.050777   -0.354111
      4          6           0       -2.486019   -2.015328   -0.776908
      5          6           0       -1.122035   -1.767007   -0.689810
      6          6           0       -0.643429   -0.532899   -0.219664
      7          6           0        0.798116   -0.220103   -0.227485
      8          7           0        1.159583    0.968729   -0.747987
      9          7           0        2.418899    1.342045   -0.772180
     10          8           0        2.723759    2.466478   -1.251235
     11          6           0        3.423036    0.489328   -0.284152
     12          6           0        4.774015    0.877780   -0.316203
     13          6           0        5.730011    0.005826    0.170565
     14          6           0        5.354867   -1.254333    0.690846
     15          6           0        4.028564   -1.644271    0.724257
     16          6           0        3.047355   -0.764429    0.231792
     17          7           0        1.696418   -1.124545    0.260723
     18          8           0        1.354886   -2.266448    0.743377
     19          6           0       -1.567334    0.437427    0.223338
     20          8           0       -1.117755    1.584976    0.817476
     21          6           0       -1.356112    2.815333    0.102850
     22          6           0       -2.947643    0.166902    0.177685
     23          8           0       -3.846017    1.097279    0.652095
     24          6           0       -4.080910    1.016399    2.069681
     25          1           0       -6.585557   -0.951971   -1.112645
     26          1           0       -5.561378    0.498486   -0.882655
     27          1           0       -5.257581   -0.613004   -2.258266
     28          1           0       -2.861509   -2.959652   -1.156021
     29          1           0       -0.415303   -2.529738   -0.992084
     30          1           0        5.019878    1.850629   -0.723138
     31          1           0        6.776673    0.291796    0.152817
     32          1           0        6.118459   -1.926338    1.069866
     33          1           0        3.704942   -2.600100    1.116402
     34          1           0       -0.978947    3.607977    0.750914
     35          1           0       -0.794638    2.811995   -0.835599
     36          1           0       -2.424941    2.956880   -0.077862
     37          1           0       -4.802921    1.801354    2.302328
     38          1           0       -4.499577    0.038914    2.334120
     39          1           0       -3.152682    1.190070    2.623947
 ---------------------------------------------------------------------

 SCF Done:  E(RB3LYP) =  -1158.98127310     A.U. after   17 cycles

 The electronic state is 1-A.
 Alpha  occ. eigenvalues --  -19.18201 -19.18161 -19.17865 -19.16741 -19.14974
 Alpha  occ. eigenvalues --  -14.54249 -14.50181 -14.40355 -10.30303 -10.28088
 Alpha  occ. eigenvalues --  -10.27980 -10.26438 -10.26086 -10.25416 -10.24042
 Alpha  occ. eigenvalues --  -10.23880 -10.23823 -10.23707 -10.23608 -10.23324
 Alpha  occ. eigenvalues --  -10.22986 -10.21972 -10.20805 -10.19911  -1.17735
 Alpha  occ. eigenvalues --   -1.12967  -1.07826  -1.06226  -1.04785  -1.00262
 Alpha  occ. eigenvalues --   -0.91996  -0.88053  -0.86321  -0.83548  -0.80879
 Alpha  occ. eigenvalues --   -0.77105  -0.76401  -0.72804  -0.72099  -0.71575
 Alpha  occ. eigenvalues --   -0.68342  -0.68174  -0.64802  -0.62935  -0.61402
 Alpha  occ. eigenvalues --   -0.60599  -0.57900  -0.54383  -0.53756  -0.53350
 Alpha  occ. eigenvalues --   -0.52053  -0.51811  -0.50200  -0.49597  -0.48692
 Alpha  occ. eigenvalues --   -0.48236  -0.47914  -0.47653  -0.47174  -0.46815
 Alpha  occ. eigenvalues --   -0.46284  -0.45747  -0.44573  -0.44213  -0.42892
 Alpha  occ. eigenvalues --   -0.41769  -0.40940  -0.40473  -0.39796  -0.39262
 Alpha  occ. eigenvalues --   -0.38051  -0.36305  -0.35861  -0.34207  -0.33659
 Alpha  occ. eigenvalues --   -0.33078  -0.30806  -0.30156  -0.29652  -0.29398
 Alpha  occ. eigenvalues --   -0.29273  -0.27722  -0.27277  -0.24790  -0.24496
 Alpha  occ. eigenvalues --   -0.22019
 Alpha virt. eigenvalues --   -0.11060  -0.07419  -0.03009  -0.02043  -0.01647
 Alpha virt. eigenvalues --   -0.00529   0.00652   0.01519   0.01825   0.01945
 Alpha virt. eigenvalues --    0.02304   0.02810   0.03031   0.03317   0.03945

 Mulliken charges:
               1
     1  C   -0.127462
     2  O   -0.341744
     3  C   -0.003213
     4  C   -0.199341
     5  C   -0.180548
     6  C    0.673030
     7  C    0.168712
     8  N   -0.077131
     9  N   -0.294470
    10  O    0.093441
    11  C    0.132531
    12  C   -0.650807
    13  C   -0.056877
    14  C    0.087787
    15  C   -0.862476
    16  C    1.034992
    17  N   -0.420988
    18  O   -0.005496
    19  C   -0.133143
    20  O   -0.301768
    21  C   -0.089248
    22  C   -0.261464
    23  O   -0.385111
    24  C   -0.116855
    25  H    0.145563
    26  H    0.169114
    27  H    0.138031
    28  H    0.140514
    29  H    0.151269
    30  H    0.180034
    31  H    0.143732
    32  H    0.144400
    33  H    0.181895
    34  H    0.139455
    35  H    0.168187
    36  H    0.160417
    37  H    0.143189
    38  H    0.151356
    39  H    0.160495
 Sum of Mulliken charges =  -0.00000

 Dipole moment (field-independent basis, Debye):
    X=              1.5330    Y=             -0.2691    Z=              0.4059  Tot=              1.6085
 Quadrupole moment (field-independent basis, Debye-Ang):
   XX=           -100.5404   YY=           -146.6716   ZZ=           -139.5060
   XY=            -11.0565   XZ=              5.1298   YZ=              8.1806

 1\1\GINC-N1\SP\RB3LYP\6-31+G(d,p)\C16H15N3O5\HPCMGAC13\25-Aug-2025\0\\
 # b3lyp/6-31+g(d,p) geom=connectivity\\Title Card Required\\0,1\C,0,-5
 .578571,-0.543401,-1.211742\O,0,-4.740835,-1.365983,-0.381919\C,0,-3.4
 075,-1.050777,-0.354111\C,0,-2.486019,-2.015328,-0.776908\C,0,-1.12203
 5,-1.767007,-0.68981\C,0,-0.643429,-0.532899,-0.219664\C,0,0.798116,-0
 .220103,-0.227485\N,0,1.159583,0.968729,-0.747987\N,0,2.418899,1.34204
 5,-0.77218\O,0,2.723759,2.466478,-1.251235\C,0,3.423036,0.489328,-0.28
 4152\C,0,4.774015,0.87778,-0.316203\C,0,5.730011,0.005826,0.170565\C,0

 Normal termination of Gaussian 16 at Mon Aug 25 07:56:57 2025.
