 Gaussian 16, Revision C.02,
 Gaussian 16:  ES64L-G16RevC.02  7-Dec-2021

 ----------------------------------------------------------
 # td=(50-50,nstates=3) b3lyp/6-31+g(d,p) geom=connectivity
 ----------------------------------------------------------

 -------------------
 Title Card Required
 -------------------
 Symbolic Z-matrix:
 Charge =  0 Multiplicity = 1

                         Standard orientation:
 ---------------------------------------------------------------------
 Center     Atomic      Atomic             Coordinates (Angstroms)
 Number     Number       Type             X           Y           Z
 ---------------------------------------------------------------------
      1          6           0       -3.357135   -1.958669   -0.119109
      2          6           0       -1.837825   -2.131566    0.020345
      3          6           0       -1.367930   -1.947567    1.470518
      4          6           0       -1.028372   -1.253880   -0.962834
      5          7           0       -0.986609    0.172927   -0.603214
      6          7           0       -2.056999    0.923987   -0.540208
      7          6           0       -1.637456    2.140354    0.047981
      8          8           0       -2.346416    3.108258    0.284235
      9          7           0       -0.255116    2.033415    0.305910
     10          7           0        0.077256    0.822893   -0.092755
     11          6           0        1.424488    0.335858   -0.058127
     12          6           0        2.074663   -0.013350   -1.244904
     13          6           0        3.398085   -0.454702   -1.185753
     14          6           0        4.062846   -0.520834    0.041803
     15          6           0        3.406107   -0.141003    1.216801
     16          6           0        2.080285    0.290575    1.174188
     17          1           0       -3.874452   -2.681476    0.520768
     18          1           0       -3.672642   -0.952288    0.166600
     19          1           0       -3.683332   -2.130476   -1.150930
     20          1           0       -1.586726   -3.156544   -0.290904
     21          1           0       -0.288195   -2.104370    1.573951
     22          1           0       -1.872785   -2.664550    2.125101
     23          1           0       -1.608806   -0.944195    1.839058
     24          1           0        0.005934   -1.594719   -1.005476
     25          1           0       -1.455487   -1.302156   -1.968599
     26          1           0        1.561537    0.080171   -2.196635
     27          1           0        3.912686   -0.727623   -2.101659
     28          1           0        5.094557   -0.856193    0.081500
     29          1           0        3.925853   -0.178720    2.168927
     30          1           0        1.556930    0.603232    2.070835
 ---------------------------------------------------------------------

 SCF Done:  E(RB3LYP) =  -721.786455785     A.U. after   18 cycles

 Excitation energies and oscillator strengths:

 Excited State   1:      Triplet-A      1.4883 eV  833.08 nm  f=0.0000  <S**2>=2.000
      58 -> 59         0.67010
      58 -> 61        -0.26914
      58 <- 59         0.16290
 This state for optimization and/or second-order correction.
 Total Energy, E(TD-HF/TD-DFT) =  -721.731763449
 Copying the excited state density for this state as the 1-particle RhoCI density.

 Excited State   2:      Triplet-A      3.1056 eV  399.23 nm  f=0.0000  <S**2>=2.000
      56 -> 59         0.10804
      57 -> 59         0.66629
      57 -> 61        -0.14816

 Excited State   3:      Singlet-A      3.1065 eV  399.11 nm  f=0.0643  <S**2>=0.000
      58 -> 59         0.69232
      58 -> 61         0.13674

 Excited State   4:      Singlet-A      3.2671 eV  379.49 nm  f=0.0054  <S**2>=0.000
      57 -> 59         0.68218
      57 -> 61        -0.16657

 Excited State   5:      Triplet-A      3.3954 eV  365.16 nm  f=0.0000  <S**2>=2.000
      55 -> 60         0.13641
      56 -> 59        -0.13260
      56 -> 61        -0.12606
      58 -> 59         0.23667
      58 -> 61         0.60215

 Excited State   6:      Singlet-A      3.6277 eV  341.77 nm  f=0.0032  <S**2>=0.000
      58 -> 60         0.70341

 The electronic state is 1-A.
 Alpha  occ. eigenvalues --  -19.08515 -14.50133 -14.49943 -14.37668 -14.37507
 Alpha  occ. eigenvalues --  -10.28488 -10.28477 -10.27386 -10.24395 -10.23961
 Alpha  occ. eigenvalues --  -10.23810 -10.23644 -10.23590 -10.22908 -10.20072
 Alpha  occ. eigenvalues --  -10.18833  -1.17921  -1.00265  -0.99850  -0.91659
 Alpha  occ. eigenvalues --   -0.88472  -0.83750  -0.80146  -0.79441  -0.75658
 Alpha  occ. eigenvalues --   -0.70648  -0.69783  -0.66389  -0.64838  -0.62762
 Alpha  occ. eigenvalues --   -0.60247  -0.56910  -0.55395  -0.53537  -0.51063
 Alpha  occ. eigenvalues --   -0.49761  -0.48624  -0.48113  -0.46996  -0.46553
 Alpha  occ. eigenvalues --   -0.45233  -0.41788  -0.40840  -0.40646  -0.39979
 Alpha  occ. eigenvalues --   -0.39499  -0.39194  -0.38374  -0.36565  -0.36167
 Alpha  occ. eigenvalues --   -0.35938  -0.34716  -0.33943  -0.31481  -0.29842
 Alpha  occ. eigenvalues --   -0.29533  -0.23823  -0.21051
 Alpha virt. eigenvalues --   -0.08095  -0.05468  -0.04935  -0.02166  -0.00694
 Alpha virt. eigenvalues --   -0.00020   0.01076   0.01710   0.01880   0.03241
 Alpha virt. eigenvalues --    0.03670   0.03884   0.04285   0.04928   0.05493

 Mulliken charges:
               1
     1  C   -0.557815
     2  C    0.166637
     3  C   -0.536695
     4  C   -0.165371
     5  N    0.247877
     6  N   -0.413351
     7  C    0.522043
     8  O   -0.554137
     9  N   -0.092548
    10  N    0.281504
    11  C   -1.644829
    12  C   -0.070332
    13  C   -0.191747
    14  C    0.089715
    15  C   -0.220972
    16  C    1.008262
    17  H    0.144342
    18  H    0.194253
    19  H    0.140472
    20  H    0.137588
    21  H    0.146444
    22  H    0.152376
    23  H    0.171242
    24  H    0.158231
    25  H    0.167848
    26  H    0.141981
    27  H    0.141673
    28  H    0.138528
    29  H    0.143313
    30  H    0.153468
 Sum of Mulliken charges =  -0.00000

 Dipole moment (field-independent basis, Debye):
    X=              6.4707    Y=             -8.9525    Z=             -1.2885  Tot=             11.1210
 Quadrupole moment (field-independent basis, Debye-Ang):
   XX=            -95.4442   YY=           -117.4277   ZZ=            -87.5920
   XY=             15.2050   XZ=              0.7436   YZ=             -1.0097

 Normal termination of Gaussian 16 at Thu Sep  4 15:46:45 2025.
