 Gaussian 16, Revision C.02,
 Gaussian 16:  ES64L-G16RevC.02  7-Dec-2021

 ----------------------------------------------------------
 # td=(50-50,nstates=3) b3lyp/6-31+g(d,p) geom=connectivity
 ----------------------------------------------------------

 -------------------
 Title Card Required
 -------------------
 Symbolic Z-matrix:
 Charge =  0 Multiplicity = 1

                         Standard orientation:
 ---------------------------------------------------------------------
 Center     Atomic      Atomic             Coordinates (Angstroms)
 Number     Number       Type             X           Y           Z
 ---------------------------------------------------------------------
      1          6           0       -3.291586    2.020367    0.379296
      2          6           0       -2.167969    1.470440    0.867865
      3          6           0       -1.860783    1.610062    2.268551
      4          7           0       -1.594650    1.691444    3.399285
      5          6           0       -1.253423    0.594796    0.048613
      6          6           0       -0.174204    1.047364   -0.648871
      7          6           0        0.302856    2.520661   -0.794223
      8          6           0        1.834495    2.605530   -1.028204
      9          6           0       -0.411474    3.112824   -2.038642
     10          6           0        0.020453    3.429011    0.425136
     11          6           0        0.617171    0.047492   -1.479337
     12          6           0        1.945338   -0.471649   -0.799772
     13          8           0        2.937088   -0.582202   -1.487734
     14          6           0        1.897408   -0.876627    0.662776
     15          6           0        3.239403   -1.328005    1.264058
     16          6           0        4.207423   -0.149333    1.451003
     17          6           0        2.999553   -2.058165    2.594899
     18          6           0       -0.141337   -1.209684   -1.909597
     19          8           0        0.136497   -1.774824   -2.957143
     20          6           0       -1.155317   -1.712979   -0.963476
     21          6           0       -1.602193   -3.037161   -1.064683
     22          6           0       -2.539954   -3.532311   -0.164181
     23          6           0       -3.046749   -2.682582    0.825678
     24          6           0       -2.631666   -1.353683    0.907488
     25          6           0       -1.671894   -0.835028    0.016997
     26          1           0       -3.559181    1.889971   -0.664322
     27          1           0       -3.957765    2.604667    1.006053
     28          1           0        2.111354    3.658256   -1.139159
     29          1           0        2.396030    2.212236   -0.174406
     30          1           0        2.176035    2.088921   -1.926636
     31          1           0       -0.059945    4.135350   -2.217853
     32          1           0       -1.495403    3.147334   -1.892789
     33          1           0       -0.207739    2.527704   -2.941659
     34          1           0       -1.036116    3.655272    0.558193
     35          1           0        0.403629    2.995147    1.353508
     36          1           0        0.533518    4.384451    0.274411
     37          1           0        0.963902    0.503810   -2.406411
     38          1           0        1.468760   -0.049965    1.245112
     39          1           0        1.154979   -1.684753    0.736650
     40          1           0        3.697164   -2.032531    0.558512
     41          1           0        5.161203   -0.495028    1.864446
     42          1           0        4.418557    0.350622    0.501786
     43          1           0        3.793220    0.588827    2.150377
     44          1           0        3.946332   -2.402524    3.024981
     45          1           0        2.353806   -2.934079    2.463629
     46          1           0        2.522423   -1.397688    3.329881
     47          1           0       -1.187968   -3.658120   -1.852621
     48          1           0       -2.872742   -4.563612   -0.227369
     49          1           0       -3.777837   -3.053736    1.538066
     50          1           0       -3.065649   -0.722474    1.673393
 ---------------------------------------------------------------------

 SCF Done:  E(RB3LYP) =  -1058.62066805     A.U. after   17 cycles

 Excitation energies and oscillator strengths:

 Excited State   1:      Triplet-A      2.5866 eV  479.34 nm  f=0.0000  <S**2>=2.000
      87 -> 91         0.15205
      89 -> 91         0.12681
      89 -> 93         0.12396
      90 -> 91         0.60054
      90 -> 93         0.23629
 This state for optimization and/or second-order correction.
 Total Energy, E(TD-HF/TD-DFT) =  -1058.52561292
 Copying the excited state density for this state as the 1-particle RhoCI density.

 Excited State   2:      Triplet-A      2.9647 eV  418.20 nm  f=0.0000  <S**2>=2.000
      88 -> 91         0.22236
      89 -> 91         0.51714
      90 -> 91        -0.21357
      90 -> 93         0.30010

 Excited State   3:      Triplet-A      3.1642 eV  391.84 nm  f=0.0000  <S**2>=2.000
      86 -> 92        -0.61243
      87 -> 92         0.13614
      88 -> 92         0.11224
      90 -> 92        -0.25322
      86 <- 92        -0.11781

 Excited State   4:      Singlet-A      3.2911 eV  376.72 nm  f=0.0270  <S**2>=0.000
      87 -> 91         0.12167
      88 -> 91        -0.16669
      89 -> 91        -0.28786
      90 -> 91         0.59456

 Excited State   5:      Singlet-A      3.7234 eV  332.99 nm  f=0.0062  <S**2>=0.000
      89 -> 91        -0.16168
      90 -> 91        -0.14793
      90 -> 92         0.65614

 Excited State   6:      Singlet-A      3.8017 eV  326.13 nm  f=0.0376  <S**2>=0.000
      87 -> 91        -0.19931
      88 -> 91         0.16732
      89 -> 91         0.47203
      89 -> 93        -0.17338
      90 -> 91         0.32450
      90 -> 92         0.22874

 The electronic state is 1-A.
 Alpha  occ. eigenvalues --  -19.16709 -19.15927 -14.36114 -10.30287 -10.29523
 Alpha  occ. eigenvalues --  -10.26816 -10.25184 -10.24096 -10.23932 -10.23890
 Alpha  occ. eigenvalues --  -10.23868 -10.23387 -10.22556 -10.22311 -10.22154
 Alpha  occ. eigenvalues --  -10.21955 -10.21874 -10.21776 -10.20653 -10.20028
 Alpha  occ. eigenvalues --  -10.19746 -10.19128 -10.18979 -10.18124 -10.17720
 Alpha  occ. eigenvalues --   -1.06868  -1.05629  -0.93019  -0.90240  -0.86914
 Alpha  occ. eigenvalues --   -0.84309  -0.82277  -0.81416  -0.78243  -0.77530
 Alpha  occ. eigenvalues --   -0.74467  -0.72285  -0.70627  -0.70028  -0.68776
 Alpha  occ. eigenvalues --   -0.67171  -0.65577  -0.64870  -0.60790  -0.59178
 Alpha  occ. eigenvalues --   -0.57081  -0.56337  -0.54196  -0.53262  -0.51568
 Alpha  occ. eigenvalues --   -0.50495  -0.48937  -0.48356  -0.48003  -0.47472
 Alpha  occ. eigenvalues --   -0.46465  -0.46015  -0.45586  -0.45207  -0.44678
 Alpha  occ. eigenvalues --   -0.44394  -0.43929  -0.43328  -0.41865  -0.41380
 Alpha  occ. eigenvalues --   -0.41161  -0.40534  -0.39701  -0.39232  -0.38939
 Alpha  occ. eigenvalues --   -0.38758  -0.38469  -0.38333  -0.38023  -0.37660
 Alpha  occ. eigenvalues --   -0.37101  -0.36943  -0.35914  -0.35626  -0.34507
 Alpha  occ. eigenvalues --   -0.34387  -0.33873  -0.33803  -0.33350  -0.31976
 Alpha  occ. eigenvalues --   -0.29936  -0.28008  -0.27725  -0.26680  -0.24310
 Alpha virt. eigenvalues --   -0.09015  -0.07814  -0.06285  -0.03700  -0.01354
 Alpha virt. eigenvalues --   -0.00249   0.00070   0.00549   0.01015   0.01293
 Alpha virt. eigenvalues --    0.01882   0.02301   0.02409   0.02562   0.02822

 Mulliken charges:
               1
     1  C   -0.345645
     2  C    0.456776
     3  C   -0.717752
     4  N   -0.291052
     5  C   -0.013883
     6  C    0.026178
     7  C    0.172114
     8  C   -0.360022
     9  C   -0.448229
    10  C   -0.440321
    11  C    0.237484
    12  C   -0.501177
    13  O   -0.266989
    14  C   -0.139332
    15  C    0.122778
    16  C   -0.591802
    17  C   -0.532290
    18  C    0.085704
    19  O   -0.341687
    20  C    0.306769
    21  C   -0.039713
    22  C   -0.192896
    23  C   -0.300510
    24  C   -0.220000
    25  C    0.479230
    26  H    0.149792
    27  H    0.163154
    28  H    0.148207
    29  H    0.161585
    30  H    0.168323
    31  H    0.154134
    32  H    0.148178
    33  H    0.155318
    34  H    0.158001
    35  H    0.167944
    36  H    0.146633
    37  H    0.170871
    38  H    0.182019
    39  H    0.175082
    40  H    0.149648
    41  H    0.144497
    42  H    0.163832
    43  H    0.138525
    44  H    0.146576
    45  H    0.141799
    46  H    0.149803
    47  H    0.163046
    48  H    0.137004
    49  H    0.136017
    50  H    0.136279
 Sum of Mulliken charges =  -0.00000

 Dipole moment (field-independent basis, Debye):
    X=             -3.4104    Y=              1.1886    Z=              0.4997  Tot=              3.6460
 Quadrupole moment (field-independent basis, Debye-Ang):
   XX=           -146.3265   YY=           -140.6305   ZZ=           -178.0191
   XY=              3.9259   XZ=              8.9553   YZ=            -15.2939

 Normal termination of Gaussian 16 at Tue Aug 12 16:10:35 2025.
