 Gaussian 16, Revision C.02,
 Gaussian 16:  ES64L-G16RevC.02  7-Dec-2021

 ----------------------------------------------------------
 # td=(50-50,nstates=3) b3lyp/6-31+g(d,p) geom=connectivity
 ----------------------------------------------------------

 -------------------
 Title Card Required
 -------------------
 Symbolic Z-matrix:
 Charge =  0 Multiplicity = 1

                         Standard orientation:
 ---------------------------------------------------------------------
 Center     Atomic      Atomic             Coordinates (Angstroms)
 Number     Number       Type             X           Y           Z
 ---------------------------------------------------------------------
      1          6           0        4.227282    0.837615   -2.152386
      2          6           0        4.597830   -0.144563   -1.307317
      3          6           0        5.839092   -0.842882   -1.539303
      4          7           0        6.834376   -1.407518   -1.746368
      5          6           0        3.805198   -0.587290   -0.149320
      6          6           0        2.488551   -0.833269    0.010975
      7          6           0        1.389188   -0.733472   -1.020997
      8          6           0        0.498703   -1.993125   -1.014545
      9          6           0        0.583807    0.599007   -0.970020
     10          6           0       -0.086150    1.035791    0.363006
     11          6           0       -0.529697    2.500251    0.264144
     12          6           0       -1.612078    2.890333   -0.539154
     13          6           0       -1.977940    4.234678   -0.636907
     14          6           0       -1.268900    5.212888    0.066545
     15          6           0       -0.190965    4.835490    0.870036
     16          6           0        0.173323    3.489284    0.965500
     17          6           0       -1.198596    0.135792    0.821318
     18          6           0       -1.508146   -0.404961    2.037852
     19          6           0       -2.720939   -1.145525    1.858263
     20          6           0       -3.095102   -1.020252    0.544846
     21         14           0       -4.547472   -1.663965   -0.467353
     22          6           0       -5.640630   -2.659937    0.707968
     23          6           0       -5.501049   -0.200454   -1.190733
     24          6           0       -3.907476   -2.758408   -1.870510
     25          8           0       -2.149051   -0.224947   -0.092698
     26          6           0        2.323198   -1.381463    1.409211
     27          6           0        3.734858   -1.357934    1.973457
     28          8           0        4.136129   -1.664892    3.062680
     29          8           0        4.575305   -0.881587    0.984296
     30          1           0        3.326441    1.413841   -1.980775
     31          1           0        4.831372    1.085033   -3.017961
     32          1           0        1.887946   -0.708278   -1.999243
     33          1           0       -0.244767   -1.930965   -1.814413
     34          1           0        1.103526   -2.890186   -1.184959
     35          1           0       -0.042410   -2.119132   -0.073309
     36          1           0        1.260788    1.413396   -1.249407
     37          1           0       -0.183192    0.557165   -1.751957
     38          1           0        0.672013    1.000121    1.152607
     39          1           0       -2.178536    2.139214   -1.080669
     40          1           0       -2.820962    4.517636   -1.261054
     41          1           0       -1.556285    6.257525   -0.008632
     42          1           0        0.365674    5.585068    1.425371
     43          1           0        1.012442    3.205728    1.596910
     44          1           0       -0.946076   -0.280586    2.953318
     45          1           0       -3.253611   -1.704444    2.615521
     46          1           0       -6.507215   -3.063473    0.171553
     47          1           0       -5.098661   -3.506510    1.143914
     48          1           0       -6.018764   -2.040390    1.528649
     49          1           0       -6.351913   -0.546028   -1.789799
     50          1           0       -4.860551    0.405449   -1.841317
     51          1           0       -5.887183    0.452142   -0.400144
     52          1           0       -3.233479   -2.200970   -2.530558
     53          1           0       -3.357647   -3.622789   -1.482349
     54          1           0       -4.736656   -3.133349   -2.482218
     55          1           0        1.659489   -0.801345    2.058997
     56          1           0        1.942963   -2.409897    1.423638
 ---------------------------------------------------------------------

 SCF Done:  E(RB3LYP) =  -1500.79315272     A.U. after   17 cycles

 Excitation energies and oscillator strengths:

 Excited State   1:      Triplet-A      2.6494 eV  467.96 nm  f=0.0000  <S**2>=2.000
     102 ->109         0.25057
     106 ->109         0.23699
     107 ->109         0.58537
 This state for optimization and/or second-order correction.
 Total Energy, E(TD-HF/TD-DFT) =  -1500.69578725
 Copying the excited state density for this state as the 1-particle RhoCI density.

 Excited State   2:      Triplet-A      3.4893 eV  355.33 nm  f=0.0000  <S**2>=2.000
     108 ->111         0.51488
     108 ->114        -0.37738
     108 ->116         0.11890
     108 ->118         0.13771

 Excited State   3:      Triplet-A      3.5787 eV  346.45 nm  f=0.0000  <S**2>=2.000
     108 ->109         0.69857

 Excited State   4:      Singlet-A      3.5806 eV  346.26 nm  f=0.0007  <S**2>=0.000
     108 ->109         0.70616

 Excited State   5:      Singlet-A      4.0419 eV  306.75 nm  f=0.0966  <S**2>=0.000
     102 ->109        -0.10429
     107 ->109         0.69023

 Excited State   6:      Singlet-A      4.3618 eV  284.25 nm  f=0.0091  <S**2>=0.000
     106 ->109         0.70115

 The electronic state is 1-A.
 Alpha  occ. eigenvalues --  -66.14126 -19.22793 -19.22737 -19.16626 -14.35689
 Alpha  occ. eigenvalues --  -10.34209 -10.28671 -10.27488 -10.25751 -10.24818
 Alpha  occ. eigenvalues --  -10.24413 -10.23459 -10.23316 -10.23134 -10.23062
 Alpha  occ. eigenvalues --  -10.22946 -10.21700 -10.21455 -10.20716 -10.20663
 Alpha  occ. eigenvalues --  -10.20643 -10.20525 -10.20370 -10.20167 -10.20000
 Alpha  occ. eigenvalues --  -10.19674 -10.17752 -10.17574 -10.17511  -5.28490
 Alpha  occ. eigenvalues --   -3.64440  -3.64345  -3.64325  -1.13654  -1.11499
 Alpha  occ. eigenvalues --   -1.05652  -0.92417  -0.87837  -0.86806  -0.84693
 Alpha  occ. eigenvalues --   -0.82617  -0.80901  -0.78856  -0.75982  -0.75500
 Alpha  occ. eigenvalues --   -0.74745  -0.72987  -0.71833  -0.69184  -0.68971
 Alpha  occ. eigenvalues --   -0.68766  -0.66632  -0.63807  -0.62363  -0.61012
 Alpha  occ. eigenvalues --   -0.60544  -0.60331  -0.57867  -0.56356  -0.55003
 Alpha  occ. eigenvalues --   -0.53643  -0.52067  -0.51451  -0.49856  -0.48670
 Alpha  occ. eigenvalues --   -0.48127  -0.47917  -0.46920  -0.46564  -0.45718
 Alpha  occ. eigenvalues --   -0.45390  -0.44649  -0.44135  -0.43483  -0.43328
 Alpha  occ. eigenvalues --   -0.42758  -0.42640  -0.42232  -0.42128  -0.41856
 Alpha  occ. eigenvalues --   -0.41715  -0.41320  -0.40674  -0.40138  -0.40045
 Alpha  occ. eigenvalues --   -0.39903  -0.39336  -0.39086  -0.38824  -0.37950
 Alpha  occ. eigenvalues --   -0.37545  -0.37254  -0.36864  -0.36571  -0.35382
 Alpha  occ. eigenvalues --   -0.35288  -0.34881  -0.34661  -0.33053  -0.31686
 Alpha  occ. eigenvalues --   -0.31631  -0.30946  -0.29653  -0.29217  -0.26690
 Alpha  occ. eigenvalues --   -0.26399  -0.25521  -0.23433
 Alpha virt. eigenvalues --   -0.08684  -0.03373  -0.03090  -0.02628  -0.02099
 Alpha virt. eigenvalues --   -0.01590  -0.01158  -0.00581  -0.00131  -0.00016
 Alpha virt. eigenvalues --    0.00565   0.01187   0.01274   0.01424   0.02165

 Mulliken charges:
               1
     1  C   -0.341095
     2  C    0.527299
     3  C    0.045083
     4  N   -0.494677
     5  C    0.145027
     6  C    0.100777
     7  C    0.059438
     8  C   -0.748537
     9  C   -0.371953
    10  C   -0.362155
    11  C    0.528703
    12  C   -0.287885
    13  C    0.048182
    14  C   -0.048999
    15  C   -0.326968
    16  C    0.030179
    17  C   -0.534821
    18  C   -0.007442
    19  C   -0.080318
    20  C   -0.438256
    21  Si   1.291899
    22  C   -0.707044
    23  C   -0.678258
    24  C   -0.676448
    25  O   -0.121466
    26  C   -0.345734
    27  C    0.440381
    28  O   -0.460241
    29  O   -0.255794
    30  H    0.153557
    31  H    0.168708
    32  H    0.137654
    33  H    0.150199
    34  H    0.150839
    35  H    0.166508
    36  H    0.125463
    37  H    0.160683
    38  H    0.102132
    39  H    0.123821
    40  H    0.126503
    41  H    0.126013
    42  H    0.128235
    43  H    0.110143
    44  H    0.128081
    45  H    0.137124
    46  H    0.164278
    47  H    0.167993
    48  H    0.169016
    49  H    0.161871
    50  H    0.162985
    51  H    0.165465
    52  H    0.163137
    53  H    0.163960
    54  H    0.162220
    55  H    0.189912
    56  H    0.204628
 Sum of Mulliken charges =  -0.00000

 Dipole moment (field-independent basis, Debye):
    X=             -7.5180    Y=              2.3220    Z=             -2.4747  Tot=              8.2484
 Quadrupole moment (field-independent basis, Debye-Ang):
   XX=           -230.0196   YY=           -176.4170   ZZ=           -186.6331
   XY=             23.5460   XZ=             -5.9729   YZ=             -0.0285

 Normal termination of Gaussian 16 at Tue Aug 12 16:19:26 2025.
