 Gaussian 16, Revision C.02,
 Gaussian 16:  ES64L-G16RevC.02  7-Dec-2021

 ----------------------------------------------------------
 # td=(50-50,nstates=3) b3lyp/6-31+g(d,p) geom=connectivity
 ----------------------------------------------------------

 -------------------
 Title Card Required
 -------------------
 Symbolic Z-matrix:
 Charge =  0 Multiplicity = 1

                         Standard orientation:
 ---------------------------------------------------------------------
 Center     Atomic      Atomic             Coordinates (Angstroms)
 Number     Number       Type             X           Y           Z
 ---------------------------------------------------------------------
      1          6           0       -6.047417   -3.003437    0.007889
      2          8           0       -5.430934   -2.128348   -0.924213
      3          6           0       -4.801643   -0.984327   -0.352276
      4          6           0       -4.815968    0.087851   -1.473787
      5          6           0       -4.114032    1.329015   -1.015842
      6          6           0       -2.818311    1.566278   -1.244690
      7          6           0       -2.033598    2.502860   -0.379495
      8          6           0       -1.483931    1.793512    0.910356
      9          8           0       -1.187445    2.481245    1.863902
     10          6           0       -1.413920    0.263680    0.923938
     11          6           0       -0.317638   -0.179738    1.918840
     12          8           0       -0.564450   -0.823498    2.919215
     13          6           0        1.074436    0.332489    1.680445
     14          6           0        2.099288   -0.152569    0.930313
     15          6           0        3.366669    0.580545    0.947128
     16          6           0        4.450286    0.199229    0.240333
     17         17           0        5.918793    1.137998    0.311289
     18          6           0        4.421571   -0.999571   -0.597114
     19          7           0        5.492479   -1.320640   -1.260688
     20          8           0        5.314929   -2.480335   -2.011467
     21          6           0        3.174642   -1.753108   -0.616358
     22          6           0        2.097582   -1.357020    0.094489
     23         17           0        0.648718   -2.347614    0.013005
     24          6           0       -2.808182   -0.369968    1.249613
     25          6           0       -3.381400   -1.326332    0.163918
     26          7           0       -0.828347    3.050167   -1.124210
     27          8           0       -0.775867    4.255636   -1.324279
     28          8           0        0.016069    2.223754   -1.474242
     29          1           0       -6.502815   -3.808784   -0.571997
     30          1           0       -5.325408   -3.440993    0.711569
     31          1           0       -6.830513   -2.485024    0.580981
     32          1           0       -5.413047   -0.625969    0.494105
     33          1           0       -5.858890    0.281418   -1.744908
     34          1           0       -4.316124   -0.343000   -2.348726
     35          1           0       -4.653549    1.969340   -0.315509
     36          1           0       -2.246192    0.933300   -1.919312
     37          1           0       -2.602572    3.374374   -0.055578
     38          1           0       -1.078924   -0.050391   -0.069709
     39          1           0        1.269239    1.232699    2.260821
     40          1           0        3.414759    1.475733    1.557263
     41          1           0        6.174823   -2.592176   -2.440254
     42          1           0        3.139644   -2.650487   -1.219557
     43          1           0       -3.527370    0.423196    1.475186
     44          1           0       -2.676331   -0.912065    2.190369
     45          1           0       -2.709797   -1.390210   -0.699742
     46          1           0       -3.422570   -2.338133    0.578785
 ---------------------------------------------------------------------

 SCF Done:  E(RB3LYP) =  -2177.80970146     A.U. after   20 cycles

 Excitation energies and oscillator strengths:

 Excited State   1:      Triplet-A      1.2368 eV 1002.49 nm  f=0.0000  <S**2>=2.000
     111 ->112         0.72864
     111 <-112         0.25124
 This state for optimization and/or second-order correction.
 Total Energy, E(TD-HF/TD-DFT) =  -2177.76425140
 Copying the excited state density for this state as the 1-particle RhoCI density.

 Excited State   2:      Triplet-A      2.9283 eV  423.40 nm  f=0.0000  <S**2>=2.000
     109 ->112         0.56852
     110 ->112        -0.28967
     111 ->117         0.25146

 Excited State   3:      Triplet-A      3.0490 eV  406.64 nm  f=0.0000  <S**2>=2.000
      97 ->113         0.34069
      98 ->113         0.43452
      98 ->114        -0.10137
     100 ->113         0.18749
     111 ->113         0.36619
      98 <-113         0.10343

 Excited State   4:      Singlet-A      3.1310 eV  395.99 nm  f=0.0005  <S**2>=0.000
     111 ->113         0.70394

 Excited State   5:      Singlet-A      3.4903 eV  355.22 nm  f=0.3125  <S**2>=0.000
     109 ->112        -0.30669
     110 ->112         0.15868
     111 ->112         0.55779
     111 ->114        -0.18214
     111 ->117         0.10643

 Excited State   6:      Singlet-A      3.6702 eV  337.81 nm  f=0.0042  <S**2>=0.000
     103 ->113        -0.11687
     108 ->113         0.29109
     109 ->113         0.21672
     110 ->113         0.52277
     110 ->114         0.13252

 The electronic state is 1-A.
 Alpha  occ. eigenvalues -- -101.58245-101.56519 -19.22710 -19.22127 -19.21817
 Alpha  occ. eigenvalues --  -19.19942 -19.18079 -19.17604 -14.59966 -14.41534
 Alpha  occ. eigenvalues --  -10.33342 -10.31786 -10.29216 -10.28882 -10.27966
 Alpha  occ. eigenvalues --  -10.26818 -10.26616 -10.25672 -10.24690 -10.24184
 Alpha  occ. eigenvalues --  -10.23787 -10.23520 -10.23453 -10.23308 -10.23235
 Alpha  occ. eigenvalues --  -10.22062 -10.21677 -10.21049  -9.49682  -9.47978
 Alpha  occ. eigenvalues --   -7.26092  -7.25128  -7.25095  -7.24419  -7.23417
 Alpha  occ. eigenvalues --   -7.23354  -1.25707  -1.11720  -1.10000  -1.08737
 Alpha  occ. eigenvalues --   -1.07841  -1.05512  -0.93729  -0.90729  -0.88422
 Alpha  occ. eigenvalues --   -0.87129  -0.84823  -0.83862  -0.82832  -0.79749
 Alpha  occ. eigenvalues --   -0.77744  -0.75929  -0.73991  -0.70363  -0.69821
 Alpha  occ. eigenvalues --   -0.67028  -0.65023  -0.64645  -0.61614  -0.61551
 Alpha  occ. eigenvalues --   -0.60347  -0.59195  -0.56917  -0.56502  -0.55866
 Alpha  occ. eigenvalues --   -0.54578  -0.54119  -0.53202  -0.52553  -0.51287
 Alpha  occ. eigenvalues --   -0.50665  -0.50329  -0.48983  -0.48671  -0.48385
 Alpha  occ. eigenvalues --   -0.47689  -0.47379  -0.46291  -0.46115  -0.45896
 Alpha  occ. eigenvalues --   -0.45700  -0.44489  -0.44229  -0.43795  -0.42910
 Alpha  occ. eigenvalues --   -0.42108  -0.41677  -0.41264  -0.39981  -0.39518
 Alpha  occ. eigenvalues --   -0.39194  -0.38863  -0.38556  -0.37802  -0.36595
 Alpha  occ. eigenvalues --   -0.36271  -0.34458  -0.34298  -0.34105  -0.33822
 Alpha  occ. eigenvalues --   -0.33379  -0.32666  -0.32644  -0.32191  -0.31648
 Alpha  occ. eigenvalues --   -0.30365  -0.28565  -0.28132  -0.27570  -0.27454
 Alpha  occ. eigenvalues --   -0.23704
 Alpha virt. eigenvalues --   -0.11103  -0.10289  -0.07804  -0.05816  -0.04064
 Alpha virt. eigenvalues --   -0.03694  -0.01205  -0.00991  -0.00075   0.00237
 Alpha virt. eigenvalues --    0.00437   0.00667   0.00803   0.01072   0.01817

 Mulliken charges:
               1
     1  C   -0.116260
     2  O   -0.266705
     3  C   -0.460495
     4  C   -0.364733
     5  C    0.182338
     6  C   -0.473831
     7  C    0.336513
     8  C   -0.452802
     9  O   -0.272616
    10  C    0.677153
    11  C   -0.844694
    12  O   -0.244998
    13  C    0.005211
    14  C    0.542040
    15  C    0.268590
    16  C    0.268257
    17  Cl   0.253380
    18  C   -1.106275
    19  N   -0.373304
    20  O   -0.187988
    21  C    0.642552
    22  C   -0.643657
    23  Cl   0.397441
    24  C   -0.486511
    25  C   -0.036627
    26  N   -0.213562
    27  O    0.063301
    28  O   -0.084393
    29  H    0.149516
    30  H    0.128323
    31  H    0.129034
    32  H    0.114224
    33  H    0.160212
    34  H    0.160439
    35  H    0.128051
    36  H    0.153566
    37  H    0.186655
    38  H    0.186854
    39  H    0.166424
    40  H    0.148684
    41  H    0.382060
    42  H    0.173344
    43  H    0.137062
    44  H    0.198669
    45  H    0.148088
    46  H    0.141471
 Sum of Mulliken charges =  -0.00000

 Dipole moment (field-independent basis, Debye):
    X=             -4.1406    Y=             -2.6637    Z=             -0.8464  Tot=              4.9956
 Quadrupole moment (field-independent basis, Debye-Ang):
   XX=           -155.6520   YY=           -187.4295   ZZ=           -189.4878
   XY=             -7.4202   XZ=             -7.9604   YZ=              7.9040

 Normal termination of Gaussian 16 at Thu Oct  2 13:02:28 2025.
