 Gaussian 16, Revision C.02,
 Gaussian 16:  ES64L-G16RevC.02  7-Dec-2021

 ----------------------------------------------------------
 # td=(50-50,nstates=3) b3lyp/6-31+g(d,p) geom=connectivity
 ----------------------------------------------------------

 -------------------
 Title Card Required
 -------------------
 Symbolic Z-matrix:
 Charge =  0 Multiplicity = 1

                         Standard orientation:
 ---------------------------------------------------------------------
 Center     Atomic      Atomic             Coordinates (Angstroms)
 Number     Number       Type             X           Y           Z
 ---------------------------------------------------------------------
      1          6           0        3.923125   -2.229330    1.148540
      2          6           0        3.141144   -1.070888    0.531501
      3          8           0        3.246253    0.011908    1.453939
      4          6           0        1.683246   -1.486261    0.248125
      5          6           0        0.853696   -0.646475   -0.786698
      6          6           0       -0.327106   -1.483806   -1.209868
      7          6           0       -1.529458   -1.308397   -0.653843
      8         17           0       -2.869354   -2.367405   -1.051254
      9          6           0       -1.742027   -0.238260    0.345954
     10          7           0       -2.694710   -0.462807    1.190010
     11          8           0       -2.821838    0.499003    2.193556
     12          6           0       -0.825049    0.937232    0.245537
     13          6           0       -1.342033    2.305397    0.655471
     14          6           0       -2.640118    2.705905   -0.068105
     15          6           0        0.398915    0.723713   -0.307579
     16         16           0        1.577311    2.078025   -0.419051
     17          6           0        2.275490    1.918433   -2.107411
     18          1           0        3.971604   -3.083430    0.465296
     19          1           0        4.941846   -1.907087    1.381166
     20          1           0        3.448073   -2.553333    2.080968
     21          1           0        3.624121   -0.793509   -0.422213
     22          1           0        2.892108    0.814113    1.034159
     23          1           0        1.707596   -2.509810   -0.146777
     24          1           0        1.136329   -1.524696    1.197159
     25          1           0        1.492869   -0.515770   -1.668377
     26          1           0       -0.155216   -2.292635   -1.913427
     27          1           0       -3.561725    0.156600    2.713839
     28          1           0       -1.505561    2.330197    1.735334
     29          1           0       -0.572072    3.045550    0.431323
     30          1           0       -2.947209    3.708366    0.248182
     31          1           0       -2.495703    2.725775   -1.154004
     32          1           0       -3.460553    2.019393    0.156133
     33          1           0        2.852591    2.832931   -2.262958
     34          1           0        2.944010    1.061806   -2.208058
     35          1           0        1.477639    1.871811   -2.851377
 ---------------------------------------------------------------------

 SCF Done:  E(RB3LYP) =  -1531.66298619     A.U. after   17 cycles

 Excitation energies and oscillator strengths:

 Excited State   1:      Triplet-A      2.4960 eV  496.72 nm  f=0.0000  <S**2>=2.000
      70 -> 74         0.12781
      72 -> 74        -0.24451
      72 -> 75        -0.13236
      73 -> 74         0.61624
      73 <- 74         0.10066
 This state for optimization and/or second-order correction.
 Total Energy, E(TD-HF/TD-DFT) =  -1531.57125863
 Copying the excited state density for this state as the 1-particle RhoCI density.

 Excited State   2:      Triplet-A      3.1640 eV  391.86 nm  f=0.0000  <S**2>=2.000
      70 -> 74         0.14681
      71 -> 74         0.11958
      72 -> 74         0.54979
      72 -> 75         0.10312
      73 -> 74         0.21289
      73 -> 75        -0.21720
      73 -> 76        -0.12867

 Excited State   3:      Singlet-A      4.0261 eV  307.95 nm  f=0.0891  <S**2>=0.000
      72 -> 74         0.44454
      73 -> 74         0.53917

 Excited State   4:      Triplet-A      4.0307 eV  307.60 nm  f=0.0000  <S**2>=2.000
      69 -> 74         0.62856
      71 -> 74        -0.12232
      72 -> 75         0.15922

 Excited State   5:      Singlet-A      4.3663 eV  283.95 nm  f=0.1569  <S**2>=0.000
      69 -> 74         0.10580
      70 -> 74         0.13254
      72 -> 74         0.52547
      72 -> 75        -0.11109
      73 -> 74        -0.40747

 Excited State   6:      Singlet-A      4.7178 eV  262.80 nm  f=0.0037  <S**2>=0.000
      69 -> 74         0.48926
      70 -> 74        -0.34358
      71 -> 74        -0.33920
      73 -> 75        -0.12541

 The electronic state is 1-A.
 Alpha  occ. eigenvalues -- -101.55461 -88.90846 -19.21422 -19.14342 -14.40216
 Alpha  occ. eigenvalues --  -10.26417 -10.25527 -10.24542 -10.24495 -10.23630
 Alpha  occ. eigenvalues --  -10.23111 -10.22715 -10.21616 -10.20129 -10.19245
 Alpha  occ. eigenvalues --  -10.17994 -10.17868  -9.46925  -7.96752  -7.23358
 Alpha  occ. eigenvalues --   -7.22362  -7.22313  -5.93275  -5.92879  -5.92274
 Alpha  occ. eigenvalues --   -1.10366  -1.01560  -0.91857  -0.86243  -0.85870
 Alpha  occ. eigenvalues --   -0.81127  -0.79491  -0.77359  -0.73914  -0.72934
 Alpha  occ. eigenvalues --   -0.68177  -0.65899  -0.64245  -0.60460  -0.59071
 Alpha  occ. eigenvalues --   -0.57052  -0.54343  -0.52398  -0.50505  -0.49348
 Alpha  occ. eigenvalues --   -0.47669  -0.46776  -0.45548  -0.45345  -0.44606
 Alpha  occ. eigenvalues --   -0.44419  -0.43164  -0.42747  -0.41950  -0.41461
 Alpha  occ. eigenvalues --   -0.39783  -0.38933  -0.38644  -0.38178  -0.37130
 Alpha  occ. eigenvalues --   -0.36811  -0.36341  -0.35719  -0.34813  -0.33464
 Alpha  occ. eigenvalues --   -0.32891  -0.31358  -0.31113  -0.28573  -0.27947
 Alpha  occ. eigenvalues --   -0.27189  -0.24720  -0.23365
 Alpha virt. eigenvalues --   -0.06765  -0.02127  -0.01514   0.00074   0.00236
 Alpha virt. eigenvalues --    0.01151   0.01499   0.01993   0.02702   0.03029
 Alpha virt. eigenvalues --    0.03494   0.03936   0.04010   0.04877   0.05137

 Mulliken charges:
               1
     1  C   -0.637497
     2  C    0.349059
     3  O   -0.444838
     4  C   -0.746664
     5  C    0.869009
     6  C   -0.806910
     7  C    0.359455
     8  Cl   0.137844
     9  C   -0.145332
    10  N   -0.410668
    11  O   -0.230880
    12  C    0.340535
    13  C   -0.248606
    14  C   -0.683922
    15  C   -0.560749
    16  S    0.260262
    17  C   -0.601515
    18  H    0.139368
    19  H    0.162028
    20  H    0.157954
    21  H    0.101269
    22  H    0.341540
    23  H    0.136410
    24  H    0.170510
    25  H    0.125621
    26  H    0.144161
    27  H    0.385309
    28  H    0.177508
    29  H    0.138290
    30  H    0.143395
    31  H    0.141616
    32  H    0.164681
    33  H    0.188066
    34  H    0.188916
    35  H    0.194772
 Sum of Mulliken charges =  -0.00000

 Dipole moment (field-independent basis, Debye):
    X=              0.8786    Y=              0.9267    Z=             -2.5284  Tot=              2.8326
 Quadrupole moment (field-independent basis, Debye-Ang):
   XX=           -120.9606   YY=           -116.8430   ZZ=           -114.9567
   XY=             -5.3096   XZ=            -16.9996   YZ=             -2.3400

 Normal termination of Gaussian 16 at Thu Oct  2 12:41:57 2025.
