 Gaussian 16, Revision C.02,
 Gaussian 16:  ES64L-G16RevC.02  7-Dec-2021

 ----------------------------------------------------------
 # td=(50-50,nstates=3) b3lyp/6-31+g(d,p) geom=connectivity
 ----------------------------------------------------------

 -------------------
 Title Card Required
 -------------------
 Symbolic Z-matrix:
 Charge =  0 Multiplicity = 1

                         Standard orientation:
 ---------------------------------------------------------------------
 Center     Atomic      Atomic             Coordinates (Angstroms)
 Number     Number       Type             X           Y           Z
 ---------------------------------------------------------------------
      1         17           0        3.964223   -1.482960   -1.246950
      2          6           0        3.422401   -0.049190   -0.368994
      3          6           0        4.338655    0.985932   -0.186955
      4          6           0        3.946991    2.134417    0.503101
      5          6           0        2.646598    2.231230    0.999054
      6          6           0        1.744106    1.183137    0.805214
      7          6           0        2.105148    0.016264    0.115632
      8          6           0        1.139086   -1.141236   -0.106876
      9          6           0       -0.256332   -0.950638    0.448303
     10          6           0       -0.568427   -1.344531    1.756824
     11          6           0       -1.854828   -1.164146    2.267923
     12          6           0       -2.856158   -0.590115    1.481311
     13          6           0       -2.540298   -0.202224    0.180134
     14         35           0       -3.896215    0.564921   -0.920674
     15          6           0       -1.260204   -0.376102   -0.343025
     16          1           0        5.343963    0.887485   -0.581871
     17          1           0        4.656632    2.943340    0.647661
     18          1           0        2.330238    3.119668    1.537117
     19          1           0        0.736173    1.268961    1.196700
     20          1           0        1.077218   -1.338213   -1.183895
     21          1           0        1.578280   -2.047459    0.327946
     22          1           0        0.201060   -1.795886    2.377425
     23          1           0       -2.085563   -1.476493    3.282201
     24          1           0       -3.859022   -0.452141    1.869349
     25          1           0       -1.043680   -0.067959   -1.360770
 ---------------------------------------------------------------------

 SCF Done:  E(RB3LYP) =  -3533.37409830     A.U. after   16 cycles

 Excitation energies and oscillator strengths:

 Excited State   1:      Triplet-A      3.6185 eV  342.64 nm  f=0.0000  <S**2>=2.000
      67 -> 71         0.20204
      67 -> 72         0.28689
      67 -> 74        -0.11881
      68 -> 72         0.22516
      69 -> 72        -0.11320
      69 -> 74        -0.15611
      70 -> 71         0.35401
      70 -> 72        -0.27481
      70 -> 74        -0.16539
 This state for optimization and/or second-order correction.
 Total Energy, E(TD-HF/TD-DFT) =  -3533.24112022
 Copying the excited state density for this state as the 1-particle RhoCI density.

 Excited State   2:      Triplet-A      3.6501 eV  339.67 nm  f=0.0000  <S**2>=2.000
      67 -> 73        -0.17934
      68 -> 73         0.35624
      69 -> 71         0.36249
      69 -> 74         0.35456
      70 -> 74        -0.20363

 Excited State   3:      Triplet-A      4.4050 eV  281.46 nm  f=0.0000  <S**2>=2.000
      67 -> 71         0.10884
      67 -> 72        -0.19272
      68 -> 72        -0.18899
      69 -> 71         0.12206
      69 -> 72         0.15623
      70 -> 71         0.40202
      70 -> 72         0.39471
      70 -> 74        -0.16397

 Excited State   4:      Singlet-A      5.0155 eV  247.20 nm  f=0.0089  <S**2>=0.000
      67 -> 71        -0.22577
      67 -> 72         0.20087
      68 -> 71        -0.16592
      69 -> 71         0.12563
      69 -> 72         0.11851
      70 -> 71         0.34721
      70 -> 72         0.43969

 Excited State   5:      Singlet-A      5.1394 eV  241.24 nm  f=0.0061  <S**2>=0.000
      67 -> 71         0.10089
      67 -> 74         0.11393
      68 -> 71        -0.33637
      68 -> 74        -0.22063
      69 -> 73         0.45353
      70 -> 71        -0.20494
      70 -> 73        -0.19023

 Excited State   6:      Singlet-A      5.3705 eV  230.86 nm  f=0.0014  <S**2>=0.000
      69 -> 75         0.22293
      70 -> 75         0.64052

 The electronic state is 1-A.
 Alpha  occ. eigenvalues -- -482.93597-101.55950 -61.89498 -56.41062 -56.40690
 Alpha  occ. eigenvalues --  -56.40652 -10.26223 -10.25992 -10.22584 -10.22245
 Alpha  occ. eigenvalues --  -10.21558 -10.21499 -10.21436 -10.21374 -10.21328
 Alpha  occ. eigenvalues --  -10.21000 -10.20986 -10.20797 -10.20737  -9.47450
 Alpha  occ. eigenvalues --   -8.59860  -7.23841  -7.22900  -7.22860  -6.55035
 Alpha  occ. eigenvalues --   -6.53779  -6.53752  -2.66585  -2.66226  -2.66206
 Alpha  occ. eigenvalues --   -2.65203  -2.65203  -0.90326  -0.88818  -0.84479
 Alpha  occ. eigenvalues --   -0.82352  -0.79912  -0.76572  -0.74577  -0.73604
 Alpha  occ. eigenvalues --   -0.70118  -0.63138  -0.61969  -0.60591  -0.58818
 Alpha  occ. eigenvalues --   -0.53023  -0.52076  -0.49148  -0.48753  -0.47022
 Alpha  occ. eigenvalues --   -0.46036  -0.44052  -0.43626  -0.43222  -0.42883
 Alpha  occ. eigenvalues --   -0.42450  -0.39445  -0.38654  -0.37732  -0.36909
 Alpha  occ. eigenvalues --   -0.36138  -0.35684  -0.34178  -0.32337  -0.31881
 Alpha  occ. eigenvalues --   -0.29661  -0.27178  -0.26589  -0.25454  -0.25213
 Alpha virt. eigenvalues --   -0.03799  -0.03327  -0.02590  -0.02161  -0.01651
 Alpha virt. eigenvalues --   -0.00301  -0.00080   0.00904   0.01571   0.02363
 Alpha virt. eigenvalues --    0.02472   0.03580   0.03868   0.04339   0.04667

 Mulliken charges:
               1
     1  Cl   0.251141
     2  C    1.103485
     3  C   -0.421505
     4  C    0.054634
     5  C   -0.293418
     6  C   -0.518402
     7  C   -0.261716
     8  C   -1.220035
     9  C    0.654370
    10  C   -0.175640
    11  C   -0.081443
    12  C   -0.329600
    13  C   -0.142557
    14  Br   0.045820
    15  C   -0.090354
    16  H    0.145550
    17  H    0.131135
    18  H    0.130593
    19  H    0.135294
    20  H    0.173064
    21  H    0.172925
    22  H    0.120941
    23  H    0.134349
    24  H    0.144741
    25  H    0.136627
 Sum of Mulliken charges =  -0.00000

 Dipole moment (field-independent basis, Debye):
    X=              0.6460    Y=              0.4636    Z=              1.8251  Tot=              1.9908
 Quadrupole moment (field-independent basis, Debye-Ang):
   XX=           -110.0182   YY=           -106.0862   ZZ=           -104.8288
   XY=              6.1224   XZ=             -2.0744   YZ=             -1.0721

 Normal termination of Gaussian 16 at Thu Oct  2 12:41:21 2025.
