 Gaussian 16, Revision C.02,
 Gaussian 16:  ES64L-G16RevC.02  7-Dec-2021

 ----------------------------------------------------------
 # td=(50-50,nstates=3) b3lyp/6-31+g(d,p) geom=connectivity
 ----------------------------------------------------------

 -------------------
 Title Card Required
 -------------------
 Symbolic Z-matrix:
 Charge =  0 Multiplicity = 1

                         Standard orientation:
 ---------------------------------------------------------------------
 Center     Atomic      Atomic             Coordinates (Angstroms)
 Number     Number       Type             X           Y           Z
 ---------------------------------------------------------------------
      1          6           0        3.259251    0.875880   -0.102348
      2          6           0        2.080572   -0.080967   -0.333902
      3          6           0        2.538620   -1.545595   -0.269240
      4          6           0        0.950355    0.238253    0.688247
      5          6           0       -0.299815   -0.548057    0.475852
      6          6           0       -1.506412   -0.039336    0.120963
      7          6           0       -2.646524   -0.895444   -0.065202
      8          7           0       -3.562839   -1.596265   -0.213276
      9          6           0       -1.717484    1.368058   -0.087669
     10          7           0       -1.884448    2.506574   -0.257007
     11          1           0        4.049523    0.701222   -0.839956
     12          1           0        2.949338    1.923115   -0.184082
     13          1           0        3.694392    0.728944    0.893959
     14          1           0        1.677022    0.111697   -1.337392
     15          1           0        1.735155   -2.247738   -0.514946
     16          1           0        3.351564   -1.723298   -0.980830
     17          1           0        2.914310   -1.796069    0.730942
     18          1           0        1.329112    0.009555    1.695891
     19          1           0        0.729667    1.309757    0.659355
     20          1           0       -0.250452   -1.626106    0.608834
 ---------------------------------------------------------------------

 SCF Done:  E(RB3LYP) =  -420.357323183     A.U. after   15 cycles

 Excitation energies and oscillator strengths:

 Excited State   1:      Triplet-A      2.9543 eV  419.67 nm  f=0.0000  <S**2>=2.000
      36 -> 37         0.69792
      36 <- 37         0.12146
 This state for optimization and/or second-order correction.
 Total Energy, E(TD-HF/TD-DFT) =  -420.248754533
 Copying the excited state density for this state as the 1-particle RhoCI density.

 Excited State   2:      Triplet-A      5.1984 eV  238.51 nm  f=0.0000  <S**2>=2.000
      31 -> 37         0.37679
      32 -> 37         0.41481
      34 -> 38         0.10044
      35 -> 38         0.14528
      36 -> 43        -0.28794

 Excited State   3:      Singlet-A      5.3047 eV  233.72 nm  f=0.4403  <S**2>=0.000
      36 -> 37         0.68792

 Excited State   4:      Triplet-A      5.4991 eV  225.46 nm  f=0.0000  <S**2>=2.000
      30 -> 43        -0.10746
      33 -> 37        -0.18480
      34 -> 37         0.31711
      35 -> 37         0.54197

 Excited State   5:      Singlet-A      5.8095 eV  213.42 nm  f=0.0012  <S**2>=0.000
      33 -> 37        -0.13328
      34 -> 37         0.31639
      35 -> 37         0.59890

 Excited State   6:      Singlet-A      6.0048 eV  206.47 nm  f=0.0016  <S**2>=0.000
      30 -> 37        -0.35043
      31 -> 37         0.17315
      32 -> 37        -0.13877
      33 -> 37         0.45365
      34 -> 37         0.18637
      36 -> 38         0.26608

 The electronic state is 1-A.
 Alpha  occ. eigenvalues --  -14.37214 -14.36945 -10.29657 -10.27263 -10.26470
 Alpha  occ. eigenvalues --  -10.26240 -10.23134 -10.22878 -10.20355 -10.20045
 Alpha  occ. eigenvalues --   -0.94528  -0.93110  -0.87773  -0.83265  -0.75453
 Alpha  occ. eigenvalues --   -0.71170  -0.66756  -0.61957  -0.59162  -0.53028
 Alpha  occ. eigenvalues --   -0.49523  -0.46931  -0.45168  -0.43330  -0.42260
 Alpha  occ. eigenvalues --   -0.41131  -0.40099  -0.39448  -0.38923  -0.37266
 Alpha  occ. eigenvalues --   -0.36898  -0.36802  -0.36025  -0.35863  -0.35595
 Alpha  occ. eigenvalues --   -0.29863
 Alpha virt. eigenvalues --   -0.10022  -0.02664  -0.01250   0.00411   0.00776
 Alpha virt. eigenvalues --    0.01188   0.01320   0.02672   0.03032   0.03719
 Alpha virt. eigenvalues --    0.04125   0.04621   0.04945   0.06388   0.06913

 Mulliken charges:
               1
     1  C   -0.611693
     2  C    0.240082
     3  C   -0.556820
     4  C   -0.353433
     5  C    0.396990
     6  C    0.758288
     7  C   -0.082571
     8  N   -0.484779
     9  C   -0.343559
    10  N   -0.491046
    11  H    0.152543
    12  H    0.152410
    13  H    0.149072
    14  H    0.143233
    15  H    0.140159
    16  H    0.155131
    17  H    0.151050
    18  H    0.166689
    19  H    0.161522
    20  H    0.156735
 Sum of Mulliken charges =  -0.00000

 Dipole moment (field-independent basis, Debye):
    X=              5.6022    Y=             -1.4854    Z=              1.0837  Tot=              5.8962
 Quadrupole moment (field-independent basis, Debye-Ang):
   XX=            -74.8644   YY=            -72.3490   ZZ=            -60.1525
   XY=             -1.9791   XZ=             -1.8909   YZ=              0.0269

 Normal termination of Gaussian 16 at Tue Aug 12 15:57:06 2025.
