 Gaussian 16, Revision C.02,
 Gaussian 16:  ES64L-G16RevC.02  7-Dec-2021

 ----------------------------------------------------------
 # td=(50-50,nstates=3) b3lyp/6-31+g(d,p) geom=connectivity
 ----------------------------------------------------------

 -------------------
 Title Card Required
 -------------------
 Symbolic Z-matrix:
 Charge =  0 Multiplicity = 1

                         Standard orientation:
 ---------------------------------------------------------------------
 Center     Atomic      Atomic             Coordinates (Angstroms)
 Number     Number       Type             X           Y           Z
 ---------------------------------------------------------------------
      1          6           0        0.346466   -1.424155   -1.528841
      2          6           0        0.402046   -0.251482   -0.525536
      3          6           0        1.038544    0.940454   -1.221901
      4          6           0        0.688829    2.212262   -0.980970
      5          6           0       -0.377238    2.519652   -0.031202
      6          8           0       -0.486441    3.856358    0.251203
      7          6           0       -1.162873    1.552048    0.473486
      8          6           0       -1.032643    0.095047    0.053767
      9          6           0       -2.159651   -0.132533   -0.955308
     10          6           0       -3.224235   -0.861088   -0.761294
     11          6           0       -4.304791   -1.593289   -0.560732
     12          6           0       -5.480418   -1.072507    0.070166
     13          7           0       -6.446300   -0.672658    0.583371
     14          6           0       -1.108050   -0.814907    1.297896
     15          6           0        0.297338   -0.694126    1.871453
     16          7           0        1.164985   -0.715981    0.688803
     17          6           0        2.527896   -0.248045    0.933598
     18          6           0        3.596474   -0.901683    0.046483
     19          6           0        5.019034   -0.462885    0.419666
     20          6           0        6.098969   -1.109101   -0.455820
     21          1           0       -0.166689   -1.149218   -2.457205
     22          1           0        1.365676   -1.730871   -1.779427
     23          1           0       -0.160350   -2.287095   -1.089291
     24          1           0        1.823925    0.729964   -1.943249
     25          1           0        1.174300    3.046496   -1.478959
     26          1           0       -1.227534    4.006922    0.854428
     27          1           0       -1.984634    1.790681    1.146514
     28          1           0       -2.082164    0.429090   -1.887217
     29          1           0       -4.341968   -2.636348   -0.872513
     30          1           0       -1.315056   -1.848631    1.002020
     31          1           0       -1.887423   -0.500593    1.997753
     32          1           0        0.396991    0.242764    2.448371
     33          1           0        0.548560   -1.526536    2.540136
     34          1           0        2.755864   -0.506320    1.974919
     35          1           0        2.609031    0.851760    0.865993
     36          1           0        3.416993   -0.661271   -1.009305
     37          1           0        3.504316   -1.992028    0.135615
     38          1           0        5.095050    0.630695    0.344900
     39          1           0        5.208925   -0.709713    1.473642
     40          1           0        7.101402   -0.779158   -0.162505
     41          1           0        6.071489   -2.202277   -0.376550
     42          1           0        5.959842   -0.850679   -1.512383
 ---------------------------------------------------------------------

 SCF Done:  E(RB3LYP) =  -845.723118987     A.U. after   17 cycles

 Excitation energies and oscillator strengths:

 Excited State   1:      Triplet-A      2.4919 eV  497.55 nm  f=0.0000  <S**2>=2.000
      72 -> 74         0.48345
      72 -> 75        -0.32894
      73 -> 74        -0.29020
      73 -> 75         0.19160
 This state for optimization and/or second-order correction.
 Total Energy, E(TD-HF/TD-DFT) =  -845.631543574
 Copying the excited state density for this state as the 1-particle RhoCI density.

 Excited State   2:      Triplet-A      3.3292 eV  372.42 nm  f=0.0000  <S**2>=2.000
      72 -> 74         0.28216
      72 -> 75        -0.19669
      73 -> 74         0.56389
      73 -> 75        -0.21747

 Excited State   3:      Singlet-A      3.3708 eV  367.81 nm  f=0.0088  <S**2>=0.000
      73 -> 74         0.63682
      73 -> 75        -0.29382

 Excited State   4:      Triplet-A      3.5206 eV  352.17 nm  f=0.0000  <S**2>=2.000
      70 -> 75         0.13525
      71 -> 74         0.37806
      71 -> 75         0.38714
      72 -> 74        -0.19923
      72 -> 75        -0.18436
      73 -> 75         0.29183

 Excited State   5:      Singlet-A      3.7458 eV  330.99 nm  f=0.0108  <S**2>=0.000
      73 -> 74         0.29613
      73 -> 75         0.64052

 Excited State   6:      Singlet-A      4.0877 eV  303.31 nm  f=0.0767  <S**2>=0.000
      72 -> 74         0.60107
      72 -> 75         0.35177

 The electronic state is 1-A.
 Alpha  occ. eigenvalues --  -19.20318 -14.34555 -14.33280 -10.26813 -10.25143
 Alpha  occ. eigenvalues --  -10.24806 -10.24364 -10.24148 -10.23751 -10.23126
 Alpha  occ. eigenvalues --  -10.21703 -10.21369 -10.21177 -10.21021 -10.19940
 Alpha  occ. eigenvalues --  -10.19826 -10.18957 -10.18586 -10.18473 -10.18191
 Alpha  occ. eigenvalues --   -1.07906  -0.94218  -0.91259  -0.86102  -0.83361
 Alpha  occ. eigenvalues --   -0.81152  -0.79438  -0.77732  -0.75451  -0.73417
 Alpha  occ. eigenvalues --   -0.70949  -0.68519  -0.64491  -0.63669  -0.61701
 Alpha  occ. eigenvalues --   -0.58970  -0.58348  -0.57993  -0.55353  -0.52288
 Alpha  occ. eigenvalues --   -0.51050  -0.50845  -0.49567  -0.48541  -0.47868
 Alpha  occ. eigenvalues --   -0.45575  -0.45281  -0.44793  -0.43644  -0.42372
 Alpha  occ. eigenvalues --   -0.42031  -0.41568  -0.40896  -0.40074  -0.39358
 Alpha  occ. eigenvalues --   -0.38884  -0.38415  -0.37954  -0.37436  -0.37109
 Alpha  occ. eigenvalues --   -0.36092  -0.35092  -0.34820  -0.34073  -0.33978
 Alpha  occ. eigenvalues --   -0.33526  -0.33103  -0.32860  -0.30406  -0.29267
 Alpha  occ. eigenvalues --   -0.28391  -0.23069  -0.21229
 Alpha virt. eigenvalues --   -0.05892  -0.05189  -0.01798  -0.01170  -0.00138
 Alpha virt. eigenvalues --    0.00301   0.00683   0.01610   0.01836   0.02169
 Alpha virt. eigenvalues --    0.02573   0.03034   0.03275   0.03511   0.04133

 Mulliken charges:
               1
     1  C   -0.083725
     2  C   -0.957627
     3  C   -0.418895
     4  C    0.365585
     5  C    0.130742
     6  O   -0.495505
     7  C   -0.345264
     8  C    0.210722
     9  C   -0.241287
    10  C    0.424770
    11  C   -0.064911
    12  C   -0.025444
    13  N   -0.491364
    14  C   -0.330669
    15  C    0.025195
    16  N    0.220755
    17  C   -0.614485
    18  C    0.277158
    19  C   -0.278370
    20  C   -0.670115
    21  H    0.145351
    22  H    0.154927
    23  H    0.154174
    24  H    0.128380
    25  H    0.140598
    26  H    0.353524
    27  H    0.113133
    28  H    0.167099
    29  H    0.182823
    30  H    0.157823
    31  H    0.151670
    32  H    0.137628
    33  H    0.133399
    34  H    0.125022
    35  H    0.137947
    36  H    0.123044
    37  H    0.144964
    38  H    0.139238
    39  H    0.135663
    40  H    0.145002
    41  H    0.147058
    42  H    0.144269
 Sum of Mulliken charges =  -0.00000

 Dipole moment (field-independent basis, Debye):
    X=              4.2551    Y=             -0.3530    Z=             -0.7180  Tot=              4.3297
 Quadrupole moment (field-independent basis, Debye-Ang):
   XX=           -160.2464   YY=           -120.1735   ZZ=           -119.2628
   XY=             -0.9651   XZ=              5.2330   YZ=              3.2116

 Normal termination of Gaussian 16 at Tue Aug 12 16:32:50 2025.
