 Gaussian 16, Revision C.02,
 Gaussian 16:  ES64L-G16RevC.02  7-Dec-2021

 ----------------------------------------------------------
 # td=(50-50,nstates=3) b3lyp/6-31+g(d,p) geom=connectivity
 ----------------------------------------------------------

 -------------------
 Title Card Required
 -------------------
 Symbolic Z-matrix:
 Charge =  0 Multiplicity = 1

                         Standard orientation:
 ---------------------------------------------------------------------
 Center     Atomic      Atomic             Coordinates (Angstroms)
 Number     Number       Type             X           Y           Z
 ---------------------------------------------------------------------
      1          6           0       -1.165651   -3.688707    1.702287
      2          6           0       -1.077592   -2.292104    2.225014
      3          7           0       -1.369631   -1.192181    1.577019
      4          8           0       -1.184097   -0.007022    2.067380
      5          6           0       -1.903083   -1.189079    0.221708
      6          6           0       -3.092879   -1.849707   -0.072482
      7          6           0       -3.608343   -1.794644   -1.369245
      8          6           0       -2.925597   -1.090124   -2.360816
      9          6           0       -1.744160   -0.413914   -2.049468
     10          6           0       -1.229605   -0.428344   -0.747786
     11          6           0        0.038933    0.293446   -0.424286
     12          6           0        1.207052   -0.403306   -0.526380
     13          6           0        2.496776    0.184733   -0.257622
     14          6           0        3.663291   -0.568347   -0.349963
     15          6           0        4.948011   -0.002297   -0.093588
     16          7           0        5.993717    0.467014    0.115715
     17          6           0        3.636447   -1.952002   -0.699915
     18          7           0        3.597431   -3.081893   -0.982198
     19          6           0        2.528079    1.580021    0.109965
     20          6           0        1.379925    2.293384    0.200629
     21          6           0        0.074947    1.709281   -0.052968
     22          6           0       -1.043666    2.525527    0.060551
     23          6           0       -2.405680    2.135270   -0.122262
     24          7           0       -3.546412    1.946733   -0.264033
     25          6           0       -0.904229    3.909432    0.401764
     26          7           0       -0.800849    5.038662    0.668004
     27          1           0       -0.265801   -4.238388    1.999896
     28          1           0       -2.019870   -4.225460    2.136693
     29          1           0       -1.253957   -3.733819    0.615684
     30          1           0       -0.720745   -2.106151    3.232985
     31          1           0       -3.620593   -2.384249    0.709920
     32          1           0       -4.542792   -2.296868   -1.597873
     33          1           0       -3.317880   -1.050727   -3.371879
     34          1           0       -1.221605    0.147951   -2.817843
     35          1           0        1.170694   -1.447868   -0.817645
     36          1           0        3.482264    2.052564    0.317170
     37          1           0        1.425413    3.339720    0.481467
 ---------------------------------------------------------------------

 SCF Done:  E(RB3LYP) =  -1117.59839116     A.U. after   19 cycles

 Excitation energies and oscillator strengths:

 Excited State   1:      Triplet-A      0.6911 eV 1794.08 nm  f=0.0000  <S**2>=2.000
      85 -> 88         0.21871
      86 -> 88         0.74613
      85 <- 88         0.10406
      86 <- 88         0.32891
 This state for optimization and/or second-order correction.
 Total Energy, E(TD-HF/TD-DFT) =  -1117.57299471
 Copying the excited state density for this state as the 1-particle RhoCI density.

 Excited State   2:      Triplet-A      1.3091 eV  947.07 nm  f=0.0000  <S**2>=2.000
      87 -> 88         0.70297

 Excited State   3:      Singlet-A      1.4777 eV  839.04 nm  f=0.0197  <S**2>=0.000
      87 -> 88         0.70569

 Excited State   4:      Triplet-A      1.9150 eV  647.42 nm  f=0.0000  <S**2>=2.000
      85 -> 88         0.67330
      86 -> 88        -0.19198

 Excited State   5:      Singlet-A      1.9569 eV  633.57 nm  f=0.0021  <S**2>=0.000
      85 -> 88         0.65178
      86 -> 88        -0.26954

 Excited State   6:      Singlet-A      2.7168 eV  456.36 nm  f=0.0034  <S**2>=0.000
      84 -> 88         0.69876

 The electronic state is 1-A.
 Alpha  occ. eigenvalues --  -19.15041 -14.50378 -14.38219 -14.38034 -14.37903
 Alpha  occ. eigenvalues --  -14.37420 -10.30892 -10.30743 -10.28939 -10.28825
 Alpha  occ. eigenvalues --  -10.27766 -10.27495 -10.27441 -10.27223 -10.27056
 Alpha  occ. eigenvalues --  -10.26806 -10.26719 -10.25786 -10.25609 -10.25544
 Alpha  occ. eigenvalues --  -10.25520 -10.24090 -10.23837 -10.23669 -10.23455
 Alpha  occ. eigenvalues --  -10.23064  -1.12519  -0.95956  -0.95432  -0.94102
 Alpha  occ. eigenvalues --   -0.93637  -0.93147  -0.91568  -0.88878  -0.88134
 Alpha  occ. eigenvalues --   -0.84225  -0.83047  -0.80579  -0.78669  -0.76159
 Alpha  occ. eigenvalues --   -0.75508  -0.69683  -0.68284  -0.68103  -0.65011
 Alpha  occ. eigenvalues --   -0.63053  -0.61385  -0.59231  -0.58505  -0.56869
 Alpha  occ. eigenvalues --   -0.54679  -0.52567  -0.52168  -0.51372  -0.50448
 Alpha  occ. eigenvalues --   -0.49238  -0.48576  -0.47735  -0.46769  -0.46114
 Alpha  occ. eigenvalues --   -0.45306  -0.44557  -0.43867  -0.43828  -0.42615
 Alpha  occ. eigenvalues --   -0.41663  -0.41123  -0.40548  -0.40366  -0.40096
 Alpha  occ. eigenvalues --   -0.39949  -0.39643  -0.39481  -0.38722  -0.38017
 Alpha  occ. eigenvalues --   -0.37764  -0.37362  -0.37190  -0.36651  -0.35859
 Alpha  occ. eigenvalues --   -0.33984  -0.32213  -0.30380  -0.29602  -0.27039
 Alpha  occ. eigenvalues --   -0.26480  -0.24669
 Alpha virt. eigenvalues --   -0.17239  -0.07859  -0.06563  -0.06255  -0.05563
 Alpha virt. eigenvalues --   -0.03864  -0.03486  -0.02814  -0.02045  -0.00851
 Alpha virt. eigenvalues --   -0.00635   0.00339   0.00666   0.00951   0.01020

 Mulliken charges:
               1
     1  C   -0.414567
     2  C    0.096756
     3  N   -0.024921
     4  O   -0.175106
     5  C   -1.363079
     6  C   -0.340057
     7  C   -0.217266
     8  C   -0.066236
     9  C   -0.217848
    10  C    0.441131
    11  C    0.207313
    12  C   -0.185347
    13  C    1.466451
    14  C    0.835004
    15  C   -0.172257
    16  N   -0.467605
    17  C   -0.531124
    18  N   -0.453246
    19  C   -0.582305
    20  C   -0.475654
    21  C    1.497007
    22  C    0.480189
    23  C   -0.365777
    24  N   -0.375408
    25  C    0.132937
    26  N   -0.476390
    27  H    0.173566
    28  H    0.175532
    29  H    0.174906
    30  H    0.167331
    31  H    0.145938
    32  H    0.141096
    33  H    0.140036
    34  H    0.134775
    35  H    0.153432
    36  H    0.169482
    37  H    0.171311
 Sum of Mulliken charges =  -0.00000

 Dipole moment (field-independent basis, Debye):
    X=             -3.2230    Y=             -5.1282    Z=             -1.6457  Tot=              6.2765
 Quadrupole moment (field-independent basis, Debye-Ang):
   XX=           -182.3508   YY=           -165.3876   ZZ=           -145.0233
   XY=             27.1059   XZ=              6.4809   YZ=            -13.6995

 Normal termination of Gaussian 16 at Tue Aug 12 16:39:38 2025.
