 Gaussian 16, Revision C.02,
 Gaussian 16:  ES64L-G16RevC.02  7-Dec-2021

 ----------------------------------------------------------
 # td=(50-50,nstates=3) b3lyp/6-31+g(d,p) geom=connectivity
 ----------------------------------------------------------

 -------------------
 Title Card Required
 -------------------
 Symbolic Z-matrix:
 Charge =  0 Multiplicity = 1

                         Standard orientation:
 ---------------------------------------------------------------------
 Center     Atomic      Atomic             Coordinates (Angstroms)
 Number     Number       Type             X           Y           Z
 ---------------------------------------------------------------------
      1          6           0        2.759585    1.519250    1.569403
      2          6           0        3.229080    0.877335    0.245079
      3          6           0        2.954715    1.854894   -0.918513
      4          6           0        4.751096    0.617503    0.331205
      5         14           0        2.318886   -0.794635   -0.058326
      6          6           0        3.025521   -1.681870   -1.573584
      7          6           0        2.421842   -1.919396    1.457491
      8          6           0        0.460028   -0.494619   -0.394311
      9          6           0       -0.210422   -0.825758   -1.531031
     10          6           0       -1.659288   -0.839844   -1.516726
     11          6           0       -2.328223   -0.244918   -0.508594
     12          6           0       -3.835875   -0.410130   -0.347884
     13          6           0       -4.178388   -1.117952    0.906633
     14          7           0       -4.414387   -1.692630    1.886710
     15          6           0       -4.580386    0.868241   -0.420892
     16          7           0       -5.147133    1.876974   -0.507975
     17          6           0       -1.538218    0.576524    0.489970
     18          6           0       -1.371153    2.043003    0.079494
     19          8           0       -0.224622   -0.026053    0.695724
     20          1           0        2.985821    0.884822    2.433558
     21          1           0        3.273622    2.478407    1.724597
     22          1           0        1.682650    1.713047    1.573138
     23          1           0        3.285616    1.452067   -1.882946
     24          1           0        3.496511    2.797406   -0.756970
     25          1           0        1.890500    2.099377   -1.006075
     26          1           0        5.281142    1.558640    0.534067
     27          1           0        5.007248   -0.077467    1.139567
     28          1           0        5.155558    0.212485   -0.603161
     29          1           0        2.481573   -2.612444   -1.769111
     30          1           0        4.075231   -1.946519   -1.405863
     31          1           0        2.981119   -1.067494   -2.479332
     32          1           0        3.462468   -2.098005    1.750721
     33          1           0        1.896171   -1.485440    2.313567
     34          1           0        1.963631   -2.891370    1.243878
     35          1           0        0.329073   -1.214549   -2.385586
     36          1           0       -2.186632   -1.410425   -2.278688
     37          1           0       -4.198778   -1.032967   -1.176379
     38          1           0       -1.998606    0.524187    1.481958
     39          1           0       -0.766221    2.572332    0.821892
     40          1           0       -0.886336    2.121017   -0.897857
     41          1           0       -2.347628    2.532232    0.018205
 ---------------------------------------------------------------------

 SCF Done:  E(RB3LYP) =  -1059.08052389     A.U. after   16 cycles

 Excitation energies and oscillator strengths:

 Excited State   1:      Triplet-A      2.3538 eV  526.74 nm  f=0.0000  <S**2>=2.000
      74 -> 75         0.69580
      74 <- 75         0.11064
 This state for optimization and/or second-order correction.
 Total Energy, E(TD-HF/TD-DFT) =  -1058.99402305
 Copying the excited state density for this state as the 1-particle RhoCI density.

 Excited State   2:      Singlet-A      3.9268 eV  315.74 nm  f=0.2353  <S**2>=0.000
      74 -> 75         0.70169

 Excited State   3:      Triplet-A      4.4792 eV  276.80 nm  f=0.0000  <S**2>=2.000
      70 -> 75         0.35802
      72 -> 75         0.37462
      73 -> 75         0.12977
      74 -> 76         0.19835
      74 -> 82         0.17957
      74 -> 85        -0.19069
      74 -> 88        -0.11704

 Excited State   4:      Triplet-A      4.6660 eV  265.72 nm  f=0.0000  <S**2>=2.000
      72 -> 75        -0.13005
      74 -> 76         0.64751
      74 -> 77        -0.16423

 Excited State   5:      Singlet-A      4.7280 eV  262.23 nm  f=0.0012  <S**2>=0.000
      74 -> 76         0.69972

 Excited State   6:      Singlet-A      4.9276 eV  251.61 nm  f=0.0016  <S**2>=0.000
      74 -> 77         0.70161

 The electronic state is 1-A.
 Alpha  occ. eigenvalues --  -66.13986 -19.20459 -14.37222 -14.37045 -10.31251
 Alpha  occ. eigenvalues --  -10.27658 -10.26510 -10.26350 -10.25362 -10.23770
 Alpha  occ. eigenvalues --  -10.23009 -10.20445 -10.19767 -10.19542 -10.18768
 Alpha  occ. eigenvalues --  -10.18596 -10.18244 -10.17920 -10.17424  -5.28379
 Alpha  occ. eigenvalues --   -3.64345  -3.64232  -3.64185  -1.08143  -0.94727
 Alpha  occ. eigenvalues --   -0.93264  -0.87620  -0.81728  -0.81028  -0.80047
 Alpha  occ. eigenvalues --   -0.72814  -0.71223  -0.69593  -0.69283  -0.68661
 Alpha  occ. eigenvalues --   -0.65767  -0.64177  -0.59812  -0.56742  -0.55739
 Alpha  occ. eigenvalues --   -0.54427  -0.51605  -0.49933  -0.48252  -0.47168
 Alpha  occ. eigenvalues --   -0.46066  -0.44519  -0.44400  -0.43882  -0.43114
 Alpha  occ. eigenvalues --   -0.41915  -0.41121  -0.40979  -0.40754  -0.40088
 Alpha  occ. eigenvalues --   -0.39710  -0.39496  -0.39242  -0.39091  -0.38740
 Alpha  occ. eigenvalues --   -0.37392  -0.37123  -0.36876  -0.36785  -0.35946
 Alpha  occ. eigenvalues --   -0.35746  -0.34757  -0.34063  -0.33964  -0.33021
 Alpha  occ. eigenvalues --   -0.31572  -0.30465  -0.28079  -0.23005
 Alpha virt. eigenvalues --   -0.06656  -0.02767  -0.02208  -0.01483  -0.00538
 Alpha virt. eigenvalues --    0.00174   0.00372   0.00751   0.01230   0.01828
 Alpha virt. eigenvalues --    0.02429   0.02711   0.02943   0.03514   0.03845

 Mulliken charges:
               1
     1  C   -0.532082
     2  C    0.002482
     3  C   -0.504795
     4  C   -0.486845
     5  Si   1.256002
     6  C   -0.669120
     7  C   -0.627805
     8  C   -1.094245
     9  C    0.220522
    10  C   -0.259144
    11  C   -0.303173
    12  C    0.534597
    13  C    0.058848
    14  N   -0.407845
    15  C    0.112460
    16  N   -0.415684
    17  C    0.350866
    18  C   -0.482007
    19  O   -0.198641
    20  H    0.148521
    21  H    0.142073
    22  H    0.158395
    23  H    0.142271
    24  H    0.146028
    25  H    0.153956
    26  H    0.148589
    27  H    0.146542
    28  H    0.150124
    29  H    0.169021
    30  H    0.166197
    31  H    0.166351
    32  H    0.160479
    33  H    0.180258
    34  H    0.165296
    35  H    0.129308
    36  H    0.124300
    37  H    0.212690
    38  H    0.147776
    39  H    0.157444
    40  H    0.162037
    41  H    0.167954
 Sum of Mulliken charges =  -0.00000

 Dipole moment (field-independent basis, Debye):
    X=              4.1572    Y=             -1.0452    Z=             -3.0223  Tot=              5.2449
 Quadrupole moment (field-independent basis, Debye-Ang):
   XX=           -143.7087   YY=           -131.5835   ZZ=           -127.8748
   XY=              5.4501   XZ=             10.8463   YZ=              9.6748

 Normal termination of Gaussian 16 at Tue Aug 12 16:46:44 2025.
