 Gaussian 16, Revision C.02,
 Gaussian 16:  ES64L-G16RevC.02  7-Dec-2021

 ----------------------------------------------------------
 # td=(50-50,nstates=3) b3lyp/6-31+g(d,p) geom=connectivity
 ----------------------------------------------------------

 -------------------
 Title Card Required
 -------------------
 Symbolic Z-matrix:
 Charge =  0 Multiplicity = 1

                         Standard orientation:
 ---------------------------------------------------------------------
 Center     Atomic      Atomic             Coordinates (Angstroms)
 Number     Number       Type             X           Y           Z
 ---------------------------------------------------------------------
      1          6           0       -3.114141    1.834475    0.003500
      2          6           0       -1.839469    1.056759   -0.004201
      3          6           0       -1.770520   -0.343900   -0.025703
      4          6           0       -3.009411   -1.201931   -0.088776
      5          8           0       -3.675787   -1.339867   -1.087776
      6          8           0       -3.299723   -1.743109    1.105719
      7          7           0       -0.602612   -1.026990   -0.039747
      8          8           0       -0.575095   -2.308219   -0.089241
      9          6           0        0.587252   -0.290274   -0.018200
     10          6           0        1.819305   -0.967618   -0.031233
     11          6           0        2.978283   -0.218528   -0.005888
     12         17           0        4.529847   -1.025895   -0.018856
     13          6           0        2.947501    1.194408    0.030461
     14          6           0        1.736735    1.856804    0.040918
     15          6           0        0.538261    1.118868    0.017148
     16          7           0       -0.691964    1.785802    0.023183
     17          8           0       -0.724872    3.069768    0.055578
     18          1           0       -3.982940    1.178575   -0.039325
     19          1           0       -3.162440    2.460404    0.900820
     20          1           0       -3.134909    2.517720   -0.851752
     21          1           0       -4.068441   -2.329062    0.989520
     22          1           0        1.816734   -2.049483   -0.060705
     23          1           0        3.878066    1.750190    0.048649
     24          1           0        1.669583    2.937229    0.066892
 ---------------------------------------------------------------------

 SCF Done:  E(RB3LYP) =  -1255.81540150     A.U. after   17 cycles

 Excitation energies and oscillator strengths:

 Excited State   1:      Triplet-A      0.9593 eV 1292.43 nm  f=0.0000  <S**2>=2.000
      65 -> 66         0.74611
      65 -> 69        -0.15669
      65 <- 66         0.29619
 This state for optimization and/or second-order correction.
 Total Energy, E(TD-HF/TD-DFT) =  -1255.78014759
 Copying the excited state density for this state as the 1-particle RhoCI density.

 Excited State   2:      Triplet-A      3.0717 eV  403.64 nm  f=0.0000  <S**2>=2.000
      60 -> 66         0.14762
      65 -> 67         0.66976

 Excited State   3:      Singlet-A      3.1100 eV  398.66 nm  f=0.1093  <S**2>=0.000
      65 -> 66         0.67550
      65 -> 69         0.17168
      65 <- 66        -0.10577

 Excited State   4:      Triplet-A      3.2598 eV  380.35 nm  f=0.0000  <S**2>=2.000
      63 -> 66         0.64178
      64 -> 66        -0.25629

 Excited State   5:      Singlet-A      3.5148 eV  352.74 nm  f=0.0284  <S**2>=0.000
      61 -> 66        -0.11506
      64 -> 66        -0.27802
      65 -> 67         0.62045

 Excited State   6:      Singlet-A      3.5399 eV  350.25 nm  f=0.0041  <S**2>=0.000
      63 -> 66         0.63837
      64 -> 66        -0.21248
      65 -> 67        -0.17240

 The electronic state is 1-A.
 Alpha  occ. eigenvalues -- -101.58023 -19.23869 -19.18677 -19.16498 -19.16142
 Alpha  occ. eigenvalues --  -14.52002 -14.51218 -10.37087 -10.29540 -10.29197
 Alpha  occ. eigenvalues --  -10.29115 -10.28931 -10.28661 -10.24692 -10.24404
 Alpha  occ. eigenvalues --  -10.24335 -10.21929  -9.49518  -7.25942  -7.24954
 Alpha  occ. eigenvalues --   -7.24906  -1.15669  -1.14402  -1.13664  -1.06039
 Alpha  occ. eigenvalues --   -0.96018  -0.92647  -0.88325  -0.87427  -0.82447
 Alpha  occ. eigenvalues --   -0.81183  -0.75258  -0.74380  -0.67688  -0.66646
 Alpha  occ. eigenvalues --   -0.64693  -0.62896  -0.58259  -0.55665  -0.53519
 Alpha  occ. eigenvalues --   -0.52478  -0.51643  -0.50881  -0.49761  -0.48820
 Alpha  occ. eigenvalues --   -0.48606  -0.48049  -0.47484  -0.44971  -0.44023
 Alpha  occ. eigenvalues --   -0.43481  -0.42944  -0.42247  -0.42061  -0.40586
 Alpha  occ. eigenvalues --   -0.36324  -0.35822  -0.34161  -0.33131  -0.30788
 Alpha  occ. eigenvalues --   -0.30478  -0.29253  -0.28787  -0.28698  -0.22978
 Alpha virt. eigenvalues --   -0.11450  -0.07267  -0.04199  -0.03595  -0.01243
 Alpha virt. eigenvalues --   -0.00841  -0.00213   0.00845   0.01541   0.02006
 Alpha virt. eigenvalues --    0.02629   0.04115   0.04306   0.05252   0.05378

 Mulliken charges:
               1
     1  C   -0.746295
     2  C    0.882730
     3  C    0.008964
     4  C    0.313921
     5  O   -0.378757
     6  O   -0.380190
     7  N   -0.460307
     8  O    0.079779
     9  C    0.045208
    10  C   -0.452623
    11  C    0.289689
    12  Cl   0.283533
    13  C   -0.102899
    14  C   -0.607010
    15  C    0.217618
    16  N   -0.503092
    17  O    0.049409
    18  H    0.157358
    19  H    0.190500
    20  H    0.194024
    21  H    0.378310
    22  H    0.194056
    23  H    0.159680
    24  H    0.186396
 Sum of Mulliken charges =  -0.00000

 Dipole moment (field-independent basis, Debye):
    X=             -0.0398    Y=              1.0150    Z=              1.4692  Tot=              1.7862
 Quadrupole moment (field-independent basis, Debye-Ang):
   XX=            -91.9247   YY=           -114.4171   ZZ=           -107.8139
   XY=              4.8385   XZ=             -7.2088   YZ=             -3.4206

 Normal termination of Gaussian 16 at Thu Oct  2 12:39:00 2025.
