 Gaussian 16, Revision C.02,
 Gaussian 16:  ES64L-G16RevC.02  7-Dec-2021

 ----------------------------------------------------------
 # td=(50-50,nstates=3) b3lyp/6-31+g(d,p) geom=connectivity
 ----------------------------------------------------------

 -------------------
 Title Card Required
 -------------------
 Symbolic Z-matrix:
 Charge =  0 Multiplicity = 1

                         Standard orientation:
 ---------------------------------------------------------------------
 Center     Atomic      Atomic             Coordinates (Angstroms)
 Number     Number       Type             X           Y           Z
 ---------------------------------------------------------------------
      1          6           0       -2.197820    0.888808    2.153869
      2          7           0       -2.006034    1.191270    0.742782
      3          6           0       -0.765934    1.779065    0.292142
      4          6           0        0.413156    0.828812    0.243954
      5          7           0        0.258274   -0.430317    0.663997
      6          7           0        1.274459   -1.273311    0.614709
      7          8           0        1.117735   -2.451933    1.022269
      8          6           0        2.519686   -0.857875    0.112910
      9          6           0        3.601885   -1.754731    0.045808
     10          6           0        4.810375   -1.304214   -0.450752
     11          6           0        4.959305    0.034675   -0.883160
     12          6           0        3.902876    0.924340   -0.820319
     13          6           0        2.668595    0.475304   -0.318235
     14          7           0        1.574302    1.336459   -0.237098
     15          8           0        1.665298    2.567342   -0.608601
     16          7           0       -2.648673    0.490940   -0.220249
     17          6           0       -3.588832   -0.333910    0.068673
     18          6           0       -4.284434   -1.048880   -1.067543
     19          6           0       -5.736508   -0.818529   -1.073202
     20          7           0       -6.883924   -0.638518   -1.057287
     21          1           0       -3.238081    1.080817    2.440848
     22          1           0       -1.945431   -0.154692    2.389424
     23          1           0       -1.558049    1.549247    2.741862
     24          1           0       -0.912947    2.187015   -0.712626
     25          1           0       -0.500073    2.630914    0.928566
     26          1           0        3.451164   -2.771395    0.386667
     27          1           0        5.653275   -1.985046   -0.509197
     28          1           0        5.916841    0.368660   -1.270070
     29          1           0        3.979277    1.955654   -1.141845
     30          1           0       -3.921456   -0.558133    1.082597
     31          1           0       -3.861917   -0.706037   -2.017199
     32          1           0       -4.119794   -2.133138   -1.001215
 ---------------------------------------------------------------------

 SCF Done:  E(RB3LYP) =  -943.310126069     A.U. after   17 cycles

 Excitation energies and oscillator strengths:

 Excited State   1:      Triplet-A      0.8197 eV 1512.51 nm  f=0.0000  <S**2>=2.000
      70 -> 72         0.76902
      70 -> 74         0.16074
      70 <- 72         0.34798
      70 <- 74         0.10322
 This state for optimization and/or second-order correction.
 Total Energy, E(TD-HF/TD-DFT) =  -943.280001803
 Copying the excited state density for this state as the 1-particle RhoCI density.

 Excited State   2:      Triplet-A      2.3260 eV  533.04 nm  f=0.0000  <S**2>=2.000
      71 -> 72         0.69982

 Excited State   3:      Singlet-A      2.3512 eV  527.33 nm  f=0.0001  <S**2>=0.000
      71 -> 72         0.70462

 Excited State   4:      Triplet-A      3.0405 eV  407.77 nm  f=0.0000  <S**2>=2.000
      70 -> 73         0.68180

 Excited State   5:      Singlet-A      3.1158 eV  397.92 nm  f=0.1237  <S**2>=0.000
      70 -> 72         0.67846
      70 -> 73        -0.11597
      70 -> 74        -0.16360
      70 <- 72        -0.11376

 Excited State   6:      Singlet-A      3.3783 eV  367.00 nm  f=0.0001  <S**2>=0.000
      69 -> 72         0.69790

 The electronic state is 1-A.
 Alpha  occ. eigenvalues --  -19.18204 -19.16430 -14.55631 -14.51295 -14.41816
 Alpha  occ. eigenvalues --  -14.40135 -14.38720 -14.34037 -10.31125 -10.29373
 Alpha  occ. eigenvalues --  -10.29252 -10.25700 -10.24921 -10.24810 -10.24669
 Alpha  occ. eigenvalues --  -10.24473 -10.24395 -10.23754 -10.23462 -10.23329
 Alpha  occ. eigenvalues --   -1.19143  -1.14318  -1.03571  -1.01571  -0.93264
 Alpha  occ. eigenvalues --   -0.90908  -0.89138  -0.87527  -0.84659  -0.82017
 Alpha  occ. eigenvalues --   -0.78569  -0.76361  -0.73953  -0.72289  -0.67989
 Alpha  occ. eigenvalues --   -0.65872  -0.64092  -0.59522  -0.57553  -0.55449
 Alpha  occ. eigenvalues --   -0.55081  -0.54608  -0.52162  -0.51727  -0.50905
 Alpha  occ. eigenvalues --   -0.49973  -0.49831  -0.49516  -0.48326  -0.47686
 Alpha  occ. eigenvalues --   -0.46430  -0.44478  -0.43856  -0.42967  -0.42529
 Alpha  occ. eigenvalues --   -0.41358  -0.40404  -0.40314  -0.37341  -0.36272
 Alpha  occ. eigenvalues --   -0.35273  -0.34416  -0.33382  -0.32907  -0.31283
 Alpha  occ. eigenvalues --   -0.30763  -0.30710  -0.29455  -0.28896  -0.23720
 Alpha  occ. eigenvalues --   -0.23310
 Alpha virt. eigenvalues --   -0.12366  -0.07813  -0.04056  -0.01794  -0.01368
 Alpha virt. eigenvalues --   -0.00467   0.00753   0.00850   0.01155   0.01358
 Alpha virt. eigenvalues --    0.01955   0.02599   0.02855   0.03055   0.03570

 Mulliken charges:
               1
     1  C   -0.257468
     2  N    0.388956
     3  C   -0.793208
     4  C    1.106794
     5  N   -0.387959
     6  N   -0.004697
     7  O    0.091863
     8  C    0.295861
     9  C   -0.829593
    10  C   -0.161993
    11  C    0.098691
    12  C   -1.504138
    13  C    1.455901
    14  N   -0.562618
    15  O    0.042277
    16  N   -0.370320
    17  C   -0.085109
    18  C   -0.286653
    19  C    0.236532
    20  N   -0.513755
    21  H    0.149005
    22  H    0.177809
    23  H    0.144197
    24  H    0.199232
    25  H    0.182178
    26  H    0.180278
    27  H    0.147212
    28  H    0.148070
    29  H    0.183316
    30  H    0.130729
    31  H    0.201832
    32  H    0.196778
 Sum of Mulliken charges =  -0.00000

 Dipole moment (field-independent basis, Debye):
    X=              8.2753    Y=             -0.5440    Z=              1.0193  Tot=              8.3556
 Quadrupole moment (field-independent basis, Debye-Ang):
   XX=           -137.1640   YY=           -124.8127   ZZ=           -113.5310
   XY=             -5.5253   XZ=            -13.0965   YZ=              8.0818

 Normal termination of Gaussian 16 at Tue Aug 12 16:48:27 2025.
