 Gaussian 16, Revision C.02,
 Gaussian 16:  ES64L-G16RevC.02  7-Dec-2021

 ----------------------------------------------------------
 # td=(50-50,nstates=3) b3lyp/6-31+g(d,p) geom=connectivity
 ----------------------------------------------------------

 -------------------
 Title Card Required
 -------------------
 Symbolic Z-matrix:
 Charge =  0 Multiplicity = 1

                         Standard orientation:
 ---------------------------------------------------------------------
 Center     Atomic      Atomic             Coordinates (Angstroms)
 Number     Number       Type             X           Y           Z
 ---------------------------------------------------------------------
      1          6           0       -6.023139   -2.911224   -1.430159
      2          8           0       -4.858542   -2.432459   -0.779986
      3          6           0       -4.798745   -1.016609   -0.716005
      4          6           0       -3.492430   -0.656464   -0.012329
      5          6           0       -3.172117    0.826179    0.083689
      6          6           0       -4.174844    1.789001   -0.099176
      7          6           0       -3.899964    3.157337   -0.064733
      8          6           0       -2.593189    3.597236    0.144013
      9          6           0       -1.577008    2.663483    0.325344
     10          6           0       -1.847311    1.281101    0.320007
     11          6           0       -0.739759    0.355292    0.615687
     12          7           0        0.489461    0.544441    0.160903
     13          8           0        0.911821    1.448195   -0.623969
     14          6           0        1.487560   -0.490871    0.687817
     15          6           0        1.655731   -1.518665   -0.352571
     16          7           0        1.742573   -2.369832   -1.137465
     17          6           0        2.824600    0.165634    1.136793
     18          6           0        3.987075    0.126817    0.163304
     19          6           0        4.064551    0.997596   -0.934019
     20          6           0        5.164075    0.954541   -1.793771
     21          6           0        6.200757    0.043333   -1.571668
     22          6           0        6.132017   -0.827413   -0.482054
     23          6           0        5.032344   -0.782731    0.378740
     24          6           0        0.676599   -1.095568    1.846195
     25          7           0        1.236648   -1.665841    2.826780
     26          6           0       -0.786107   -0.813678    1.570773
     27          1           0       -5.966859   -4.001674   -1.425862
     28          1           0       -6.936509   -2.595620   -0.902763
     29          1           0       -6.075528   -2.557667   -2.470972
     30          1           0       -4.825755   -0.585803   -1.730213
     31          1           0       -5.673327   -0.635037   -0.164977
     32          1           0       -3.527040   -1.107173    0.988196
     33          1           0       -2.691769   -1.168815   -0.556564
     34          1           0       -5.195223    1.471390   -0.283801
     35          1           0       -4.704328    3.871904   -0.213378
     36          1           0       -2.362067    4.657903    0.159108
     37          1           0       -0.556128    2.997716    0.464652
     38          1           0        3.104934   -0.360684    2.052966
     39          1           0        2.583845    1.198494    1.406526
     40          1           0        3.251226    1.691589   -1.116853
     41          1           0        5.208984    1.633470   -2.640711
     42          1           0        7.054135    0.011847   -2.243112
     43          1           0        6.931058   -1.540451   -0.300089
     44          1           0        4.985606   -1.462173    1.226392
     45          1           0        0.552324   -1.994074    3.513806
     46          1           0       -1.332308   -0.575057    2.490678
     47          1           0       -1.256456   -1.703317    1.131811
 ---------------------------------------------------------------------

 SCF Done:  E(RB3LYP) =  -1127.53458709     A.U. after   17 cycles

 Excitation energies and oscillator strengths:

 Excited State   1:      Triplet-A      2.0845 eV  594.79 nm  f=0.0000  <S**2>=2.000
      86 -> 93        -0.10224
      92 -> 93         0.64830
      92 -> 94        -0.20028
      92 <- 93         0.13858
 This state for optimization and/or second-order correction.
 Total Energy, E(TD-HF/TD-DFT) =  -1127.45798354
 Copying the excited state density for this state as the 1-particle RhoCI density.

 Excited State   2:      Triplet-A      3.5638 eV  347.90 nm  f=0.0000  <S**2>=2.000
      86 -> 93         0.38784
      87 -> 93        -0.15435
      88 -> 93        -0.13848
      89 -> 93        -0.12222
      89 -> 95         0.26230
      92 -> 93         0.16442
      92 -> 94         0.21923
      92 -> 99         0.18884
      92 ->101        -0.11344

 Excited State   3:      Triplet-A      3.6902 eV  335.98 nm  f=0.0000  <S**2>=2.000
      88 -> 93        -0.21467
      89 -> 93         0.27284
      90 -> 97         0.25872
      90 -> 99        -0.20377
      91 -> 93        -0.22016
      91 -> 96        -0.21969
      91 -> 98        -0.32134

 Excited State   4:      Singlet-A      3.8765 eV  319.84 nm  f=0.1791  <S**2>=0.000
      88 -> 93        -0.10559
      92 -> 93         0.55880
      92 -> 94         0.39639

 Excited State   5:      Singlet-A      4.0040 eV  309.65 nm  f=0.0034  <S**2>=0.000
      87 -> 93         0.10569
      88 -> 93         0.39300
      88 -> 94        -0.10833
      89 -> 93        -0.36016
      91 -> 93         0.34578
      92 -> 94         0.21258

 Excited State   6:      Singlet-A      4.1997 eV  295.22 nm  f=0.0429  <S**2>=0.000
      88 -> 93        -0.13156
      89 -> 93         0.15843
      90 -> 93         0.13447
      91 -> 93         0.54852
      92 -> 93         0.19364
      92 -> 94        -0.29549

 The electronic state is 1-A.
 Alpha  occ. eigenvalues --  -19.17145 -19.15425 -14.49705 -14.36582 -14.35661
 Alpha  occ. eigenvalues --  -10.30308 -10.28881 -10.27000 -10.25193 -10.24656
 Alpha  occ. eigenvalues --  -10.24384 -10.24127 -10.22903 -10.22833 -10.21673
 Alpha  occ. eigenvalues --  -10.21246 -10.21157 -10.21082 -10.20999 -10.20765
 Alpha  occ. eigenvalues --  -10.20184 -10.19155 -10.19109 -10.19064 -10.18943
 Alpha  occ. eigenvalues --  -10.18508  -1.13177  -1.05053  -0.96864  -0.92342
 Alpha  occ. eigenvalues --   -0.91317  -0.88102  -0.85921  -0.82896  -0.80966
 Alpha  occ. eigenvalues --   -0.77938  -0.76610  -0.75295  -0.74993  -0.74262
 Alpha  occ. eigenvalues --   -0.69374  -0.68675  -0.64982  -0.64519  -0.62523
 Alpha  occ. eigenvalues --   -0.60674  -0.60264  -0.59435  -0.58476  -0.54962
 Alpha  occ. eigenvalues --   -0.53613  -0.52082  -0.51510  -0.50659  -0.50151
 Alpha  occ. eigenvalues --   -0.49595  -0.48446  -0.47802  -0.47264  -0.46691
 Alpha  occ. eigenvalues --   -0.45825  -0.45478  -0.44951  -0.44648  -0.44016
 Alpha  occ. eigenvalues --   -0.43983  -0.43325  -0.42011  -0.41570  -0.40827
 Alpha  occ. eigenvalues --   -0.39511  -0.39129  -0.38715  -0.37769  -0.36881
 Alpha  occ. eigenvalues --   -0.36506  -0.36126  -0.36028  -0.35790  -0.34714
 Alpha  occ. eigenvalues --   -0.34366  -0.34024  -0.33707  -0.33486  -0.30609
 Alpha  occ. eigenvalues --   -0.28717  -0.27673  -0.27392  -0.26301  -0.25036
 Alpha  occ. eigenvalues --   -0.24709  -0.23373
 Alpha virt. eigenvalues --   -0.07393  -0.05635  -0.02807  -0.01780  -0.01594
 Alpha virt. eigenvalues --   -0.01117  -0.00683  -0.00188   0.00473   0.00651
 Alpha virt. eigenvalues --    0.01292   0.01480   0.01800   0.02000   0.02594

 Mulliken charges:
               1
     1  C   -0.121094
     2  O   -0.316243
     3  C   -0.609387
     4  C   -0.400670
     5  C    0.443006
     6  C   -0.191449
     7  C   -0.258636
     8  C   -0.298129
     9  C    0.017026
    10  C    0.205768
    11  C   -0.162911
    12  N   -0.157641
    13  O    0.096019
    14  C    0.826435
    15  C   -0.586257
    16  N   -0.309459
    17  C   -0.881801
    18  C    0.958014
    19  C    0.042590
    20  C   -0.367293
    21  C   -0.005104
    22  C   -0.320043
    23  C   -0.141122
    24  C   -0.164872
    25  N   -0.357660
    26  C   -0.133373
    27  H    0.147731
    28  H    0.124977
    29  H    0.129091
    30  H    0.135395
    31  H    0.116833
    32  H    0.171198
    33  H    0.173645
    34  H    0.119017
    35  H    0.129871
    36  H    0.132160
    37  H    0.152027
    38  H    0.191630
    39  H    0.175979
    40  H    0.155331
    41  H    0.125093
    42  H    0.121938
    43  H    0.123848
    44  H    0.117088
    45  H    0.269900
    46  H    0.175287
    47  H    0.206249
 Sum of Mulliken charges =  -0.00000

 Dipole moment (field-independent basis, Debye):
    X=             -5.3174    Y=              1.4283    Z=              3.2888  Tot=              6.4133
 Quadrupole moment (field-independent basis, Debye-Ang):
   XX=           -133.1619   YY=           -157.5087   ZZ=           -152.6065
   XY=              2.9592   XZ=              2.6604   YZ=             -4.7683

 Normal termination of Gaussian 16 at Sat Aug 30 00:00:05 2025.
