 Gaussian 16, Revision C.02,
 Gaussian 16:  ES64L-G16RevC.02  7-Dec-2021

 ----------------------------------------------------------
 # td=(50-50,nstates=3) b3lyp/6-31+g(d,p) geom=connectivity
 ----------------------------------------------------------

 -------------------
 Title Card Required
 -------------------
 Symbolic Z-matrix:
 Charge =  0 Multiplicity = 1

                         Standard orientation:
 ---------------------------------------------------------------------
 Center     Atomic      Atomic             Coordinates (Angstroms)
 Number     Number       Type             X           Y           Z
 ---------------------------------------------------------------------
      1          6           0        6.721997   -0.217442    0.960189
      2          6           0        5.374803   -0.111431    1.057039
      3          6           0        4.772858    0.436193    2.243333
      4          7           0        4.312866    0.879637    3.214437
      5          6           0        4.521845   -0.526718   -0.031106
      6          6           0        3.216968   -0.622150   -0.422777
      7          6           0        1.853343   -0.395690    0.035873
      8          6           0        1.518033   -0.415468    1.338971
      9          6           0        0.852695   -0.141261   -1.093410
     10          6           0       -0.614677   -0.208666   -0.706813
     11          6           0       -1.487868    0.815652   -0.501744
     12          6           0       -1.199230    2.347251   -0.486472
     13          6           0       -1.746707    3.005499   -1.779777
     14          6           0       -1.880515    2.981334    0.759690
     15          6           0        0.294002    2.742020   -0.375461
     16          6           0       -2.948519    0.439583   -0.332256
     17          8           0       -3.832424    1.267445   -0.561607
     18          6           0       -3.327883   -0.938928    0.110620
     19          6           0       -4.743581   -1.197873    0.658527
     20          6           0       -5.062244   -0.205144    1.803486
     21          6           0       -5.792491   -1.044849   -0.472452
     22          6           0       -4.866322   -2.626192    1.228877
     23          6           0       -2.411592   -1.907535   -0.062337
     24          6           0       -1.061305   -1.648188   -0.624553
     25          6           0        3.771705   -1.116223   -1.723632
     26          8           0        3.446060   -1.490337   -2.803259
     27          8           0        5.124534   -1.003480   -1.224513
     28          1           0        7.172150   -0.624738    0.062423
     29          1           0        7.366678    0.101894    1.770687
     30          1           0        0.497635   -0.219764    1.651354
     31          1           0        2.240764   -0.618213    2.120040
     32          1           0        1.110229    0.796464   -1.581821
     33          1           0        1.021844   -0.912083   -1.857293
     34          1           0       -1.521103    4.078823   -1.766794
     35          1           0       -1.264594    2.574561   -2.665263
     36          1           0       -2.824639    2.876477   -1.871682
     37          1           0       -1.668166    4.055807    0.776414
     38          1           0       -1.475717    2.551169    1.683757
     39          1           0       -2.961366    2.853296    0.756041
     40          1           0        0.822532    2.195546    0.409998
     41          1           0        0.835283    2.628127   -1.317883
     42          1           0        0.345911    3.805935   -0.122348
     43          1           0       -6.056354   -0.420113    2.211597
     44          1           0       -4.337738   -0.303274    2.620577
     45          1           0       -5.055313    0.827921    1.452755
     46          1           0       -6.793465   -1.256929   -0.077892
     47          1           0       -5.593843   -1.755001   -1.283510
     48          1           0       -5.785945   -0.035435   -0.884762
     49          1           0       -4.136991   -2.814004    2.025167
     50          1           0       -5.865795   -2.758177    1.655873
     51          1           0       -4.741236   -3.393527    0.456956
     52          1           0       -2.637567   -2.942868    0.174274
     53          1           0       -0.312504   -2.214087   -0.051167
     54          1           0       -1.007994   -2.086934   -1.636398
 ---------------------------------------------------------------------

 SCF Done:  E(RB3LYP) =  -1173.07676317     A.U. after   20 cycles

 Excitation energies and oscillator strengths:

 Excited State   1:      Triplet-A      1.4603 eV  849.01 nm  f=0.0000  <S**2>=2.000
      94 -> 99         0.10859
      95 -> 99         0.10956
      96 -> 99         0.13759
      97 -> 99         0.66661
      97 <- 99         0.14761
 This state for optimization and/or second-order correction.
 Total Energy, E(TD-HF/TD-DFT) =  -1173.02309645
 Copying the excited state density for this state as the 1-particle RhoCI density.

 Excited State   2:      Triplet-A      2.6860 eV  461.60 nm  f=0.0000  <S**2>=2.000
      98 -> 99         0.69814

 Excited State   3:      Singlet-A      2.6905 eV  460.83 nm  f=0.0040  <S**2>=0.000
      98 -> 99         0.70627

 Excited State   4:      Singlet-A      2.8842 eV  429.88 nm  f=0.1924  <S**2>=0.000
      97 -> 99         0.69504

 Excited State   5:      Triplet-A      2.9823 eV  415.73 nm  f=0.0000  <S**2>=2.000
      98 ->100         0.68568

 Excited State   6:      Singlet-A      3.1280 eV  396.37 nm  f=0.0056  <S**2>=0.000
      96 -> 99         0.70371

 The electronic state is 1-A.
 Alpha  occ. eigenvalues --  -19.22352 -19.20587 -19.13625 -14.37886 -10.36541
 Alpha  occ. eigenvalues --  -10.32143 -10.29418 -10.27798 -10.27047 -10.26612
 Alpha  occ. eigenvalues --  -10.25279 -10.24342 -10.22793 -10.21698 -10.21452
 Alpha  occ. eigenvalues --  -10.21379 -10.21341 -10.21130 -10.21113 -10.20979
 Alpha  occ. eigenvalues --  -10.20577 -10.17922 -10.17826 -10.17041 -10.16870
 Alpha  occ. eigenvalues --  -10.16810 -10.16799  -1.14871  -1.08918  -1.03735
 Alpha  occ. eigenvalues --   -0.94693  -0.87765  -0.87267  -0.85250  -0.83111
 Alpha  occ. eigenvalues --   -0.81004  -0.79099  -0.75778  -0.73206  -0.71807
 Alpha  occ. eigenvalues --   -0.70723  -0.68717  -0.68251  -0.68088  -0.67997
 Alpha  occ. eigenvalues --   -0.67026  -0.63160  -0.61197  -0.58363  -0.57303
 Alpha  occ. eigenvalues --   -0.55984  -0.54657  -0.53042  -0.52064  -0.51113
 Alpha  occ. eigenvalues --   -0.50801  -0.49740  -0.48519  -0.48185  -0.47311
 Alpha  occ. eigenvalues --   -0.46687  -0.46027  -0.44841  -0.44631  -0.44029
 Alpha  occ. eigenvalues --   -0.43659  -0.43401  -0.42939  -0.42813  -0.42299
 Alpha  occ. eigenvalues --   -0.41895  -0.41257  -0.40905  -0.39861  -0.39358
 Alpha  occ. eigenvalues --   -0.39116  -0.38817  -0.38706  -0.38403  -0.37637
 Alpha  occ. eigenvalues --   -0.37403  -0.37228  -0.36907  -0.36144  -0.35477
 Alpha  occ. eigenvalues --   -0.34139  -0.33713  -0.33584  -0.33205  -0.33034
 Alpha  occ. eigenvalues --   -0.32878  -0.32382  -0.31925  -0.31279  -0.26616
 Alpha  occ. eigenvalues --   -0.26447  -0.25132  -0.24348
 Alpha virt. eigenvalues --   -0.13136  -0.06547  -0.05607  -0.03269  -0.01977
 Alpha virt. eigenvalues --   -0.01252  -0.00808  -0.00144   0.00598   0.01033
 Alpha virt. eigenvalues --    0.01573   0.01875   0.02217   0.02385   0.02975

 Mulliken charges:
               1
     1  C   -0.037481
     2  C    1.355520
     3  C   -0.874085
     4  N   -0.445598
     5  C   -0.196795
     6  C    0.348222
     7  C   -0.017061
     8  C   -0.663023
     9  C   -0.256540
    10  C    0.290025
    11  C    0.373031
    12  C    0.296998
    13  C   -0.525926
    14  C   -0.537750
    15  C   -0.481800
    16  C   -0.853445
    17  O   -0.413328
    18  C    0.354941
    19  C    0.288852
    20  C   -0.526913
    21  C   -0.518528
    22  C   -0.478076
    23  C    0.198114
    24  C   -0.720307
    25  C    0.658230
    26  O   -0.426381
    27  O   -0.398788
    28  H    0.193749
    29  H    0.179469
    30  H    0.155128
    31  H    0.145838
    32  H    0.156088
    33  H    0.167387
    34  H    0.140009
    35  H    0.137841
    36  H    0.185903
    37  H    0.139751
    38  H    0.141535
    39  H    0.175973
    40  H    0.164435
    41  H    0.130868
    42  H    0.148060
    43  H    0.140207
    44  H    0.141058
    45  H    0.174675
    46  H    0.138736
    47  H    0.138300
    48  H    0.185167
    49  H    0.151023
    50  H    0.149546
    51  H    0.143133
    52  H    0.130420
    53  H    0.173046
    54  H    0.180547
 Sum of Mulliken charges =  -0.00000

 Dipole moment (field-independent basis, Debye):
    X=              3.5418    Y=             -2.1499    Z=              0.8599  Tot=              4.2315
 Quadrupole moment (field-independent basis, Debye-Ang):
   XX=           -150.9563   YY=           -165.2225   ZZ=           -182.0061
   XY=              7.6693   XZ=              2.6196   YZ=             -6.9650

 Normal termination of Gaussian 16 at Fri Aug 29 23:36:03 2025.
