 Gaussian 16, Revision C.02,
 Gaussian 16:  ES64L-G16RevC.02  7-Dec-2021

 ----------------------------------------------------------
 # td=(50-50,nstates=3) b3lyp/6-31+g(d,p) geom=connectivity
 ----------------------------------------------------------

 -------------------
 Title Card Required
 -------------------
 Symbolic Z-matrix:
 Charge =  0 Multiplicity = 1

                         Standard orientation:
 ---------------------------------------------------------------------
 Center     Atomic      Atomic             Coordinates (Angstroms)
 Number     Number       Type             X           Y           Z
 ---------------------------------------------------------------------
      1          6           0        2.721372   -0.422987    2.540981
      2          7           0        3.080612   -0.264130    1.140885
      3          6           0        4.433516   -0.119055    0.790874
      4          6           0        5.551357   -0.630348    1.453762
      5          6           0        6.815541   -0.397860    0.897749
      6          6           0        6.962351    0.327033   -0.287689
      7          6           0        5.830268    0.836861   -0.941246
      8          6           0        4.571574    0.618478   -0.395125
      9          6           0        3.201650    1.034258   -0.915274
     10          6           0        3.118518    2.531893   -1.262305
     11          6           0        2.821507    0.214662   -2.167956
     12          6           0        2.321848    0.720312    0.367108
     13          6           0        0.860963    0.357069    0.136730
     14          6           0       -0.007031    1.409478    0.190847
     15          6           0       -1.438990    1.355561   -0.018232
     16          6           0       -2.205205    2.505710    0.040387
     17          6           0       -3.702898    2.636326   -0.136549
     18          6           0       -1.537367    3.747618    0.285371
     19          7           0       -1.043884    4.786223    0.480781
     20          6           0       -1.963857    0.018407   -0.266045
     21          8           0       -3.299514   -0.058933   -0.464845
     22          6           0       -3.913000   -1.328896   -0.705560
     23          6           0       -5.367785   -1.074821   -1.020043
     24         35           0       -6.372240   -0.447151    0.554815
     25          6           0       -1.129956   -1.058038   -0.290224
     26          6           0        0.306437   -0.982316   -0.115422
     27          6           0        0.988500   -2.204005   -0.197617
     28          6           0        2.383058   -2.512745   -0.163016
     29          7           0        3.432277   -3.019423   -0.239867
     30          6           0        0.229844   -3.404925   -0.407058
     31          7           0       -0.386996   -4.380125   -0.573911
     32          1           0        1.643890   -0.585809    2.627709
     33          1           0        3.222784   -1.300622    2.955520
     34          1           0        2.992225    0.459109    3.146438
     35          1           0        5.454187   -1.202753    2.369848
     36          1           0        7.694351   -0.790981    1.400729
     37          1           0        7.951126    0.498754   -0.701626
     38          1           0        5.943711    1.404907   -1.861154
     39          1           0        3.775948    2.765203   -2.106096
     40          1           0        2.100102    2.812609   -1.555738
     41          1           0        3.420990    3.158508   -0.417639
     42          1           0        3.495622    0.479668   -2.988792
     43          1           0        2.918156   -0.859561   -2.005067
     44          1           0        1.798835    0.437593   -2.493165
     45          1           0        2.299306    1.662910    0.941696
     46          1           0        0.403510    2.387196    0.419592
     47          1           0       -4.248704    1.955700    0.520025
     48          1           0       -4.014654    3.661398    0.069167
     49          1           0       -3.992197    2.388203   -1.163261
     50          1           0       -3.444328   -1.805634   -1.578564
     51          1           0       -3.789376   -1.981902    0.165510
     52          1           0       -5.856462   -1.996993   -1.333652
     53          1           0       -5.481361   -0.311751   -1.790013
     54          1           0       -1.550513   -2.037828   -0.463113
 ---------------------------------------------------------------------

 SCF Done:  E(RB3LYP) =  -3832.43856776     A.U. after   19 cycles

 Excitation energies and oscillator strengths:

 Excited State   1:      Triplet-A      0.8409 eV 1474.48 nm  f=0.0000  <S**2>=2.000
     120 ->123         0.11780
     121 ->123         0.73678
     121 <-123         0.28243
 This state for optimization and/or second-order correction.
 Total Energy, E(TD-HF/TD-DFT) =  -3832.40766649
 Copying the excited state density for this state as the 1-particle RhoCI density.

 Excited State   2:      Triplet-A      1.0062 eV 1232.26 nm  f=0.0000  <S**2>=2.000
     122 ->123         0.70006

 Excited State   3:      Singlet-A      1.0183 eV 1217.59 nm  f=0.0000  <S**2>=0.000
     122 ->123         0.70581

 Excited State   4:      Triplet-A      2.3325 eV  531.56 nm  f=0.0000  <S**2>=2.000
     119 ->123        -0.16321
     120 ->123         0.67812

 Excited State   5:      Singlet-A      2.3352 eV  530.94 nm  f=0.0033  <S**2>=0.000
     120 ->123         0.68951
     121 ->123        -0.15528

 Excited State   6:      Singlet-A      2.8071 eV  441.69 nm  f=0.3450  <S**2>=0.000
     118 ->123         0.11424
     119 ->123        -0.44084
     120 ->123         0.12239
     121 ->123         0.52672
     121 <-123        -0.10204

 The electronic state is 1-A.
 Alpha  occ. eigenvalues -- -482.94258 -61.90278 -56.41937 -56.41570 -56.41554
 Alpha  occ. eigenvalues --  -19.23982 -14.37251 -14.36394 -14.36280 -14.34871
 Alpha  occ. eigenvalues --  -10.31127 -10.29890 -10.28664 -10.28466 -10.28265
 Alpha  occ. eigenvalues --  -10.27954 -10.26774 -10.26164 -10.25693 -10.25224
 Alpha  occ. eigenvalues --  -10.25179 -10.24748 -10.24316 -10.23498 -10.22740
 Alpha  occ. eigenvalues --  -10.22589 -10.22564 -10.22459 -10.19492 -10.19355
 Alpha  occ. eigenvalues --  -10.19292 -10.19117 -10.19112 -10.18729 -10.18725
 Alpha  occ. eigenvalues --   -8.60837  -6.56069  -6.54791  -6.54771  -2.67613
 Alpha  occ. eigenvalues --   -2.67258  -2.67242  -2.66222  -2.66222  -1.12812
 Alpha  occ. eigenvalues --   -0.97603  -0.94204  -0.93803  -0.91574  -0.91306
 Alpha  occ. eigenvalues --   -0.87247  -0.85732  -0.85264  -0.83573  -0.82154
 Alpha  occ. eigenvalues --   -0.80407  -0.77207  -0.76331  -0.74898  -0.74167
 Alpha  occ. eigenvalues --   -0.72127  -0.70446  -0.70050  -0.68404  -0.66976
 Alpha  occ. eigenvalues --   -0.65119  -0.64004  -0.62141  -0.60058  -0.58765
 Alpha  occ. eigenvalues --   -0.58079  -0.56955  -0.55743  -0.53653  -0.52639
 Alpha  occ. eigenvalues --   -0.51993  -0.50753  -0.49621  -0.49071  -0.48546
 Alpha  occ. eigenvalues --   -0.47858  -0.47352  -0.46685  -0.45839  -0.45579
 Alpha  occ. eigenvalues --   -0.44725  -0.44365  -0.44231  -0.43967  -0.43699
 Alpha  occ. eigenvalues --   -0.43048  -0.42357  -0.41951  -0.41502  -0.40807
 Alpha  occ. eigenvalues --   -0.40267  -0.39727  -0.39346  -0.38927  -0.38776
 Alpha  occ. eigenvalues --   -0.38748  -0.37987  -0.37686  -0.37466  -0.37331
 Alpha  occ. eigenvalues --   -0.36938  -0.36386  -0.35973  -0.35830  -0.35328
 Alpha  occ. eigenvalues --   -0.35023  -0.34226  -0.33497  -0.33015  -0.32741
 Alpha  occ. eigenvalues --   -0.30767  -0.30546  -0.29064  -0.28114  -0.25055
 Alpha  occ. eigenvalues --   -0.24467  -0.20606
 Alpha virt. eigenvalues --   -0.14797  -0.05312  -0.04484  -0.03839  -0.02317
 Alpha virt. eigenvalues --   -0.02212  -0.01317  -0.00834  -0.00607  -0.00042
 Alpha virt. eigenvalues --    0.00496   0.00568   0.00787   0.01204   0.01592

 Mulliken charges:
               1
     1  C   -0.096142
     2  N    0.256193
     3  C   -0.137141
     4  C   -0.459478
     5  C   -0.263225
     6  C   -0.014225
     7  C   -0.548883
     8  C    0.206823
     9  C    0.063482
    10  C   -0.385757
    11  C   -0.467484
    12  C   -0.550748
    13  C    0.354817
    14  C   -0.227601
    15  C    0.652627
    16  C    0.745349
    17  C   -0.479915
    18  C   -0.742420
    19  N   -0.469114
    20  C    0.146044
    21  O   -0.345223
    22  C    0.391154
    23  C   -0.622441
    24  Br  -0.134202
    25  C   -0.324233
    26  C    0.972685
    27  C    0.208971
    28  C   -0.233045
    29  N   -0.297107
    30  C   -0.200691
    31  N   -0.497691
    32  H    0.145426
    33  H    0.153589
    34  H    0.142484
    35  H    0.113377
    36  H    0.123662
    37  H    0.121034
    38  H    0.119362
    39  H    0.149085
    40  H    0.148935
    41  H    0.157720
    42  H    0.151143
    43  H    0.169215
    44  H    0.142137
    45  H    0.109415
    46  H    0.144710
    47  H    0.201977
    48  H    0.167503
    49  H    0.180439
    50  H    0.157641
    51  H    0.175559
    52  H    0.190782
    53  H    0.193295
    54  H    0.140130
 Sum of Mulliken charges =  -0.00000

 Dipole moment (field-independent basis, Debye):
    X=             -4.7924    Y=              2.2927    Z=             -1.1360  Tot=              5.4327
 Quadrupole moment (field-independent basis, Debye-Ang):
   XX=           -194.0763   YY=           -241.6748   ZZ=           -188.1531
   XY=             12.6881   XZ=             12.2945   YZ=             -7.8092

 Normal termination of Gaussian 16 at Fri Aug 29 23:07:54 2025.
