 Gaussian 16, Revision C.02,
 Gaussian 16:  ES64L-G16RevC.02  7-Dec-2021

 ----------------------------------------------------------
 # td=(50-50,nstates=3) b3lyp/6-31+g(d,p) geom=connectivity
 ----------------------------------------------------------

 -------------------
 Title Card Required
 -------------------
 Symbolic Z-matrix:
 Charge =  0 Multiplicity = 1

                         Standard orientation:
 ---------------------------------------------------------------------
 Center     Atomic      Atomic             Coordinates (Angstroms)
 Number     Number       Type             X           Y           Z
 ---------------------------------------------------------------------
      1          6           0       -1.209938   -3.288653    0.437005
      2          7           0       -1.701270   -1.928654    0.172476
      3          6           0       -3.172362   -1.516898    0.291106
      4          6           0       -3.322337   -0.201156    1.060658
      5          7           0       -2.615616    0.950689    0.338494
      6          6           0       -3.222309    2.271479    0.118844
      7          6           0       -1.243898    0.582934   -0.116754
      8          6           0       -0.240521    1.388542   -0.496991
      9          6           0       -0.278344    2.700962   -0.485024
     10          7           0       -0.311769    3.858415   -0.474437
     11          6           0        0.932032    0.561300   -0.938203
     12          6           0        2.137167    0.833079   -0.092677
     13          6           0        3.282959    0.187959   -0.334841
     14          6           0        4.488069    0.459830    0.510658
     15          8           0        4.201354    0.149805    1.847521
     16          6           0        0.425354   -0.836595   -0.730775
     17          6           0        1.101325   -1.932165   -0.989080
     18          7           0        1.697506   -2.898481   -1.217027
     19          6           0       -0.823245   -0.796235   -0.241231
     20          1           0       -0.108568   -3.322917    0.280076
     21          1           0       -1.443142   -3.568799    1.488711
     22          1           0       -1.705805   -4.003666   -0.256938
     23          1           0       -3.729834   -2.316325    0.828683
     24          1           0       -3.580341   -1.372495   -0.734205
     25          1           0       -2.876579   -0.321328    2.073461
     26          1           0       -4.406076    0.041899    1.132713
     27          1           0       -4.246883    2.286619    0.553203
     28          1           0       -2.599579    3.051698    0.611107
     29          1           0       -3.279690    2.476158   -0.973675
     30          1           0        1.260057    0.768971   -1.981271
     31          1           0        2.079974    1.563546    0.727761
     32          1           0        3.340035   -0.542448   -1.155332
     33          1           0        5.336877   -0.168217    0.158579
     34          1           0        4.762668    1.535312    0.429944
     35          1           0        4.980388    0.333472    2.344298
 ---------------------------------------------------------------------

 SCF Done:  E(RB3LYP) =  -837.245474975     A.U. after   17 cycles

 Excitation energies and oscillator strengths:

 Excited State   1:      Triplet-A      1.9049 eV  650.87 nm  f=0.0000  <S**2>=2.000
      65 -> 69         0.10741
      68 -> 69         0.69632
      68 <- 69         0.11037
 This state for optimization and/or second-order correction.
 Total Energy, E(TD-HF/TD-DFT) =  -837.175471210
 Copying the excited state density for this state as the 1-particle RhoCI density.

 Excited State   2:      Triplet-A      2.5998 eV  476.90 nm  f=0.0000  <S**2>=2.000
      67 -> 69         0.68959
      68 -> 75        -0.11332

 Excited State   3:      Singlet-A      3.2660 eV  379.62 nm  f=0.0571  <S**2>=0.000
      68 -> 69         0.69846

 Excited State   4:      Triplet-A      3.5244 eV  351.79 nm  f=0.0000  <S**2>=2.000
      64 -> 70        -0.18779
      66 -> 69         0.18306
      66 -> 70        -0.55754
      68 -> 70        -0.21938

 Excited State   5:      Singlet-A      3.6750 eV  337.38 nm  f=0.1997  <S**2>=0.000
      67 -> 69         0.69570

 Excited State   6:      Singlet-A      4.0363 eV  307.18 nm  f=0.0021  <S**2>=0.000
      66 -> 69         0.69718

 The electronic state is 1-A.
 Alpha  occ. eigenvalues --  -19.15834 -14.38951 -14.38898 -14.33437 -14.33324
 Alpha  occ. eigenvalues --  -10.27432 -10.27393 -10.26132 -10.26062 -10.24292
 Alpha  occ. eigenvalues --  -10.24117 -10.23727 -10.23426 -10.22466 -10.22313
 Alpha  occ. eigenvalues --  -10.21951 -10.21912 -10.20230 -10.19411  -1.04178
 Alpha  occ. eigenvalues --   -0.97174  -0.92648  -0.92137  -0.90947  -0.89341
 Alpha  occ. eigenvalues --   -0.81238  -0.79651  -0.78249  -0.75446  -0.70516
 Alpha  occ. eigenvalues --   -0.70288  -0.67428  -0.65310  -0.64144  -0.57500
 Alpha  occ. eigenvalues --   -0.56166  -0.55227  -0.52534  -0.51378  -0.51309
 Alpha  occ. eigenvalues --   -0.48913  -0.48046  -0.47094  -0.46910  -0.46295
 Alpha  occ. eigenvalues --   -0.45672  -0.44754  -0.43666  -0.42609  -0.41713
 Alpha  occ. eigenvalues --   -0.40828  -0.40383  -0.39835  -0.39356  -0.38751
 Alpha  occ. eigenvalues --   -0.38272  -0.37223  -0.36526  -0.36308  -0.34514
 Alpha  occ. eigenvalues --   -0.34257  -0.32613  -0.31995  -0.28605  -0.28290
 Alpha  occ. eigenvalues --   -0.25923  -0.23295  -0.21589
 Alpha virt. eigenvalues --   -0.08317  -0.02821  -0.01576  -0.00028   0.00320
 Alpha virt. eigenvalues --    0.00348   0.01170   0.01361   0.01695   0.02620
 Alpha virt. eigenvalues --    0.02880   0.02950   0.03334   0.03993   0.04269

 Mulliken charges:
               1
     1  C   -0.235472
     2  N   -0.115854
     3  C   -0.162342
     4  C   -0.205737
     5  N   -0.126306
     6  C   -0.243902
     7  C    0.037088
     8  C   -0.506472
     9  C    0.469011
    10  N   -0.647051
    11  C    0.925011
    12  C   -0.349453
    13  C    0.232922
    14  C   -0.441336
    15  O   -0.542295
    16  C    0.067531
    17  C   -0.072998
    18  N   -0.605989
    19  C   -0.105962
    20  H    0.167090
    21  H    0.143583
    22  H    0.151292
    23  H    0.146796
    24  H    0.160912
    25  H    0.160666
    26  H    0.140985
    27  H    0.138273
    28  H    0.179885
    29  H    0.161337
    30  H    0.187990
    31  H    0.148429
    32  H    0.139360
    33  H    0.117581
    34  H    0.131577
    35  H    0.353852
 Sum of Mulliken charges =  -0.00000

 Dipole moment (field-independent basis, Debye):
    X=             -3.9933    Y=             -1.3880    Z=              1.8457  Tot=              4.6130
 Quadrupole moment (field-independent basis, Debye-Ang):
   XX=            -83.0531   YY=           -138.9091   ZZ=           -113.4927
   XY=             12.7654   XZ=              0.3168   YZ=             -2.6981

 Normal termination of Gaussian 16 at Fri Aug 29 22:34:33 2025.
