 Gaussian 16, Revision C.02,
 Gaussian 16:  ES64L-G16RevC.02  7-Dec-2021

 ----------------------------------------------------------
 # td=(50-50,nstates=3) b3lyp/6-31+g(d,p) geom=connectivity
 ----------------------------------------------------------

 -------------------
 Title Card Required
 -------------------
 Symbolic Z-matrix:
 Charge =  0 Multiplicity = 1

                         Standard orientation:
 ---------------------------------------------------------------------
 Center     Atomic      Atomic             Coordinates (Angstroms)
 Number     Number       Type             X           Y           Z
 ---------------------------------------------------------------------
      1          6           0       -1.750100    2.408214   -0.441938
      2          6           0       -2.799698    1.672323   -0.023431
      3          6           0       -3.948887    2.336918    0.542059
      4          7           0       -4.861648    2.885322    1.009841
      5          6           0       -2.865431    0.201871   -0.086938
      6          6           0       -1.957339   -0.767971    0.136111
      7          6           0       -0.512618   -0.624383    0.533158
      8          6           0       -0.188316   -1.414807    1.815420
      9          6           0        0.416448   -1.047597   -0.651145
     10          6           0        1.837836   -0.617004   -0.490687
     11          7           0        2.181736    0.624843   -0.692605
     12          8           0        1.441414    1.635419   -0.995211
     13          6           0        3.668679    0.839467   -0.619129
     14          8           0        3.932829    2.051239    0.005029
     15          6           0        4.177295   -0.411099    0.133835
     16          6           0        5.551864   -0.860578   -0.380526
     17          6           0        4.233219   -0.153061    1.650506
     18          6           0        3.053216   -1.450112   -0.190710
     19          6           0       -2.661590   -2.087077   -0.066302
     20          6           0       -4.084495   -1.674749   -0.416851
     21          8           0       -5.040651   -2.353468   -0.674952
     22          8           0       -4.137507   -0.294709   -0.406918
     23          1           0       -0.865018    1.965087   -0.887578
     24          1           0       -1.764428    3.486828   -0.327378
     25          1           0       -0.321502    0.434789    0.727726
     26          1           0        0.845898   -1.238403    2.127372
     27          1           0       -0.840153   -1.106135    2.638473
     28          1           0       -0.313189   -2.494050    1.669437
     29          1           0        0.380125   -2.135666   -0.777292
     30          1           0        0.032823   -0.588457   -1.571004
     31          1           0        4.010733    0.850716   -1.666351
     32          1           0        3.269294    2.679229   -0.336706
     33          1           0        6.311609   -0.099007   -0.175995
     34          1           0        5.864292   -1.786408    0.114633
     35          1           0        5.537449   -1.044925   -1.460580
     36          1           0        4.536753   -1.069993    2.167099
     37          1           0        4.952560    0.634336    1.886284
     38          1           0        3.262323    0.160718    2.046077
     39          1           0        2.884300   -2.142917    0.641739
     40          1           0        3.316675   -2.066425   -1.063459
     41          1           0       -2.252424   -2.695682   -0.882829
     42          1           0       -2.677908   -2.724757    0.825509
 ---------------------------------------------------------------------

 SCF Done:  E(RB3LYP) =  -1032.11634360     A.U. after   17 cycles

 Excitation energies and oscillator strengths:

 Excited State   1:      Triplet-A      2.6235 eV  472.58 nm  f=0.0000  <S**2>=2.000
      77 -> 82        -0.15106
      80 -> 82        -0.30593
      80 -> 83         0.24321
      81 -> 82         0.42572
      81 -> 83         0.34596
 This state for optimization and/or second-order correction.
 Total Energy, E(TD-HF/TD-DFT) =  -1032.01993013
 Copying the excited state density for this state as the 1-particle RhoCI density.

 Excited State   2:      Triplet-A      2.6765 eV  463.23 nm  f=0.0000  <S**2>=2.000
      77 -> 82         0.13720
      80 -> 82         0.40704
      80 -> 83         0.22289
      81 -> 82        -0.13254
      81 -> 83         0.47546

 Excited State   3:      Triplet-A      3.7278 eV  332.60 nm  f=0.0000  <S**2>=2.000
      77 -> 82         0.47586
      78 -> 82        -0.25439
      80 -> 84        -0.23854
      80 -> 89        -0.12389
      81 -> 82         0.12906
      81 -> 84         0.19256

 Excited State   4:      Singlet-A      3.8566 eV  321.48 nm  f=0.0052  <S**2>=0.000
      81 -> 82         0.69941

 Excited State   5:      Singlet-A      4.3122 eV  287.52 nm  f=0.0630  <S**2>=0.000
      77 -> 82        -0.10584
      80 -> 82         0.68051

 Excited State   6:      Singlet-A      4.6694 eV  265.52 nm  f=0.0013  <S**2>=0.000
      79 -> 82         0.55316
      79 -> 83         0.41853
      81 -> 83        -0.10662

 The electronic state is 1-A.
 Alpha  occ. eigenvalues --  -19.22691 -19.18709 -19.16599 -19.15893 -14.48474
 Alpha  occ. eigenvalues --  -14.34919 -10.34237 -10.30392 -10.28576 -10.26780
 Alpha  occ. eigenvalues --  -10.26528 -10.24208 -10.24099 -10.23686 -10.23682
 Alpha  occ. eigenvalues --  -10.23422 -10.23250 -10.23155 -10.23090 -10.20975
 Alpha  occ. eigenvalues --  -10.20715 -10.20057  -1.13588  -1.13080  -1.06106
 Alpha  occ. eigenvalues --   -1.05613  -0.92989  -0.91674  -0.87102  -0.84297
 Alpha  occ. eigenvalues --   -0.83211  -0.80808  -0.76539  -0.74353  -0.72907
 Alpha  occ. eigenvalues --   -0.71612  -0.70435  -0.68184  -0.64312  -0.61659
 Alpha  occ. eigenvalues --   -0.60863  -0.57817  -0.57614  -0.55501  -0.54826
 Alpha  occ. eigenvalues --   -0.53832  -0.51339  -0.50490  -0.49134  -0.48624
 Alpha  occ. eigenvalues --   -0.48477  -0.47607  -0.46757  -0.45644  -0.45497
 Alpha  occ. eigenvalues --   -0.45080  -0.44107  -0.43423  -0.42995  -0.42410
 Alpha  occ. eigenvalues --   -0.41924  -0.41211  -0.40952  -0.40819  -0.39823
 Alpha  occ. eigenvalues --   -0.39447  -0.38474  -0.38101  -0.37279  -0.36939
 Alpha  occ. eigenvalues --   -0.36700  -0.36537  -0.36108  -0.35457  -0.34175
 Alpha  occ. eigenvalues --   -0.31695  -0.30339  -0.29570  -0.28213  -0.25774
 Alpha  occ. eigenvalues --   -0.24537
 Alpha virt. eigenvalues --   -0.08025  -0.05024  -0.03067  -0.02292  -0.00910
 Alpha virt. eigenvalues --   -0.00520   0.00015   0.00492   0.01198   0.01659
 Alpha virt. eigenvalues --    0.01924   0.02078   0.02690   0.02908   0.03585

 Mulliken charges:
               1
     1  C   -0.366525
     2  C    0.449947
     3  C    0.061383
     4  N   -0.505133
     5  C   -0.339829
     6  C    0.664490
     7  C   -0.064363
     8  C   -0.669879
     9  C   -1.184770
    10  C    0.406661
    11  N   -0.325283
    12  O   -0.040679
    13  C    0.256397
    14  O   -0.470571
    15  C    0.080176
    16  C   -0.466899
    17  C   -0.418526
    18  C   -0.137710
    19  C   -0.222096
    20  C    0.538609
    21  O   -0.464090
    22  O   -0.269177
    23  H    0.200595
    24  H    0.162904
    25  H    0.156008
    26  H    0.149491
    27  H    0.162212
    28  H    0.149281
    29  H    0.146593
    30  H    0.180613
    31  H    0.139316
    32  H    0.376220
    33  H    0.166870
    34  H    0.153155
    35  H    0.148589
    36  H    0.146121
    37  H    0.174628
    38  H    0.157123
    39  H    0.163396
    40  H    0.164958
    41  H    0.191992
    42  H    0.197799
 Sum of Mulliken charges =  -0.00000

 Dipole moment (field-independent basis, Debye):
    X=              9.7022    Y=             -4.3814    Z=             -0.2181  Tot=             10.6479
 Quadrupole moment (field-independent basis, Debye-Ang):
   XX=           -177.6207   YY=           -137.4989   ZZ=           -132.1564
   XY=             -2.7644   XZ=             -1.1380   YZ=             -5.7171

 Normal termination of Gaussian 16 at Fri Aug 29 22:25:14 2025.
