 Gaussian 16, Revision C.02,
 Gaussian 16:  ES64L-G16RevC.02  7-Dec-2021

 ----------------------------------------------------------
 # td=(50-50,nstates=3) b3lyp/6-31+g(d,p) geom=connectivity
 ----------------------------------------------------------

 -------------------
 Title Card Required
 -------------------
 Symbolic Z-matrix:
 Charge =  0 Multiplicity = 1

                         Standard orientation:
 ---------------------------------------------------------------------
 Center     Atomic      Atomic             Coordinates (Angstroms)
 Number     Number       Type             X           Y           Z
 ---------------------------------------------------------------------
      1          6           0        3.132347    2.358629    2.151588
      2          6           0        2.283937    2.833004    0.955182
      3          6           0        1.177085    3.792837    1.459495
      4          6           0        3.190882    3.582977   -0.055687
      5          6           0        1.639331    1.664400    0.270496
      6          6           0        1.693254    0.316038    0.314177
      7          6           0        2.392726   -0.775718    1.069490
      8          6           0        3.822005   -1.067972    0.629902
      9          6           0        4.162383   -1.299308   -0.705205
     10          9           0        3.202970   -1.258478   -1.650149
     11          6           0        5.464190   -1.578930   -1.111229
     12          9           0        5.744474   -1.793059   -2.403849
     13          6           0        6.480702   -1.640589   -0.159771
     14          9           0        7.737344   -1.908557   -0.533956
     15          6           0        6.179929   -1.424437    1.182114
     16          9           0        7.150626   -1.486238    2.104894
     17          6           0        4.865952   -1.146804    1.554800
     18          9           0        4.617764   -0.952188    2.867213
     19          6           0        0.613613    0.226021   -0.806007
     20          6           0        0.060475   -0.870418   -1.493992
     21          7           0       -0.358702   -1.836311   -1.998584
     22          6           0        0.529495    1.579397   -0.857946
     23          6           0       -0.126005    2.558649   -1.731086
     24          8           0        0.386503    3.670893   -1.896674
     25          6           0       -1.392321    2.220090   -2.422554
     26          6           0       -2.239470    1.266025   -2.063810
     27          6           0       -3.086682    0.368789   -1.736008
     28          6           0       -3.921668   -0.532630   -1.389242
     29          6           0       -4.728313   -1.542134   -1.104034
     30          6           0       -5.878472   -1.662028   -0.197198
     31          6           0       -6.505710   -2.925602   -0.194725
     32          6           0       -7.609896   -3.207956    0.603753
     33          6           0       -8.128618   -2.219480    1.438466
     34          6           0       -7.529089   -0.959187    1.460730
     35          6           0       -6.419722   -0.667731    0.662129
     36          6           0       -5.839190    0.724091    0.757698
     37          9           0       -6.505953    1.499089    1.648484
     38          9           0       -4.541651    0.713608    1.160704
     39          9           0       -5.884131    1.383193   -0.428347
     40          1           0        3.941597    1.692913    1.836587
     41          1           0        3.591726    3.223519    2.641179
     42          1           0        2.523409    1.839098    2.898951
     43          1           0        0.586046    4.186957    0.629312
     44          1           0        1.637776    4.640479    1.978796
     45          1           0        0.505786    3.289486    2.164034
     46          1           0        4.000443    2.935499   -0.409446
     47          1           0        2.614915    3.930064   -0.916453
     48          1           0        3.641195    4.452870    0.436160
     49          1           0        2.412288   -0.538297    2.134928
     50          1           0        1.803813   -1.696114    0.966649
     51          1           0       -1.648962    2.901116   -3.233698
     52          1           0       -4.500084   -2.464063   -1.642803
     53          1           0       -6.105948   -3.699565   -0.843186
     54          1           0       -8.060124   -4.195376    0.571465
     55          1           0       -8.989287   -2.419847    2.068288
     56          1           0       -7.927568   -0.188188    2.108627
 ---------------------------------------------------------------------

 SCF Done:  E(RB3LYP) =  -2043.86333262     A.U. after   19 cycles

 Excitation energies and oscillator strengths:

 Excited State   1:      Triplet-A      -0.2646 eV    -4685.77 nm  f=-0.0000  <S**2>=2.000
     138 ->140         0.11571
     139 ->140         0.90855
     139 ->142        -0.26011
     139 <-140         0.61715
     139 <-142        -0.19592
 This state for optimization and/or second-order correction.
 Total Energy, E(TD-HF/TD-DFT) =  -2043.87305639
 Copying the excited state density for this state as the 1-particle RhoCI density.

 Excited State   2:      Singlet-A      1.8771 eV  660.51 nm  f=0.0199  <S**2>=0.000
     139 ->140         0.70538

 Excited State   3:      Triplet-A      1.9468 eV  636.87 nm  f=0.0000  <S**2>=2.000
     137 ->140         0.27137
     137 ->142         0.27994
     138 ->140         0.17259
     138 ->141         0.52218
     139 ->141        -0.15745
     138 <-141         0.11282

 Excited State   4:      Triplet-A      2.1327 eV  581.34 nm  f=0.0000  <S**2>=2.000
     135 ->140         0.26531
     137 ->140         0.15104
     138 ->140         0.52227
     138 ->141        -0.25170
     138 ->142         0.14554
     139 ->142        -0.12453

 Excited State   5:      Singlet-A      2.3320 eV  531.66 nm  f=0.0004  <S**2>=0.000
     135 ->140         0.16068
     138 ->140         0.67334
     138 ->142         0.10950

 Excited State   6:      Singlet-A      2.9273 eV  423.54 nm  f=0.0234  <S**2>=0.000
     139 ->141         0.68922

 The electronic state is 1-A.
 Alpha  occ. eigenvalues --  -24.76949 -24.76673 -24.76578 -24.76568 -24.76433
 Alpha  occ. eigenvalues --  -24.75640 -24.75255 -24.75223 -19.16050 -14.36792
 Alpha  occ. eigenvalues --  -10.45925 -10.33236 -10.32821 -10.32772 -10.32758
 Alpha  occ. eigenvalues --  -10.32648 -10.30448 -10.27314 -10.26138 -10.25698
 Alpha  occ. eigenvalues --  -10.25319 -10.25237 -10.25198 -10.25053 -10.24651
 Alpha  occ. eigenvalues --  -10.24556 -10.24393 -10.24179 -10.23995 -10.23536
 Alpha  occ. eigenvalues --  -10.23397 -10.23069 -10.22866 -10.22798 -10.22729
 Alpha  occ. eigenvalues --  -10.22654 -10.19363 -10.18695 -10.18352  -1.32587
 Alpha  occ. eigenvalues --   -1.28651  -1.27960  -1.27418  -1.26619  -1.26332
 Alpha  occ. eigenvalues --   -1.23963  -1.23708  -1.05545  -0.93785  -0.92772
 Alpha  occ. eigenvalues --   -0.91654  -0.90300  -0.84865  -0.83921  -0.83432
 Alpha  occ. eigenvalues --   -0.82486  -0.80867  -0.80273  -0.78891  -0.76982
 Alpha  occ. eigenvalues --   -0.74600  -0.72956  -0.72027  -0.70479  -0.69816
 Alpha  occ. eigenvalues --   -0.69510  -0.68601  -0.67830  -0.66388  -0.64780
 Alpha  occ. eigenvalues --   -0.63610  -0.62413  -0.61802  -0.61588  -0.60345
 Alpha  occ. eigenvalues --   -0.60022  -0.59871  -0.59080  -0.57829  -0.56850
 Alpha  occ. eigenvalues --   -0.56166  -0.55018  -0.54675  -0.54227  -0.53149
 Alpha  occ. eigenvalues --   -0.51797  -0.51542  -0.51377  -0.50994  -0.49511
 Alpha  occ. eigenvalues --   -0.49188  -0.48968  -0.48545  -0.48349  -0.48315
 Alpha  occ. eigenvalues --   -0.48228  -0.47779  -0.46752  -0.46708  -0.46630
 Alpha  occ. eigenvalues --   -0.45936  -0.45382  -0.45174  -0.45148  -0.44760
 Alpha  occ. eigenvalues --   -0.44222  -0.43956  -0.43699  -0.43665  -0.42639
 Alpha  occ. eigenvalues --   -0.42434  -0.42326  -0.41683  -0.41003  -0.40890
 Alpha  occ. eigenvalues --   -0.40598  -0.40192  -0.39695  -0.39155  -0.39011
 Alpha  occ. eigenvalues --   -0.38644  -0.37937  -0.37708  -0.37477  -0.37385
 Alpha  occ. eigenvalues --   -0.36706  -0.35591  -0.35195  -0.33854  -0.33678
 Alpha  occ. eigenvalues --   -0.33481  -0.31364  -0.29264  -0.28793  -0.28160
 Alpha  occ. eigenvalues --   -0.28092  -0.26503  -0.24447  -0.22533
 Alpha virt. eigenvalues --   -0.13135  -0.09846  -0.09078  -0.05116  -0.04894
 Alpha virt. eigenvalues --   -0.04636  -0.04091  -0.02064  -0.01508  -0.01099
 Alpha virt. eigenvalues --   -0.00647  -0.00362   0.00484   0.00847   0.00880

 Mulliken charges:
               1
     1  C   -0.431968
     2  C    0.182664
     3  C   -0.509292
     4  C   -0.572796
     5  C    0.169109
     6  C    0.500857
     7  C   -0.343088
     8  C    1.150762
     9  C   -0.457712
    10  F   -0.307998
    11  C   -0.119368
    12  F   -0.331490
    13  C    0.703000
    14  F   -0.334750
    15  C    0.151053
    16  F   -0.327536
    17  C    0.141612
    18  F   -0.334723
    19  C    0.520187
    20  C   -0.590719
    21  N   -0.476416
    22  C    0.457090
    23  C   -0.752495
    24  O   -0.391922
    25  C   -0.820965
    26  C    0.419130
    27  C    0.824883
    28  C   -0.348045
    29  C   -0.530992
    30  C    0.787964
    31  C   -0.256771
    32  C    0.079714
    33  C   -0.252112
    34  C   -0.365616
    35  C   -0.465750
    36  C    1.398528
    37  F   -0.338968
    38  F   -0.264545
    39  F   -0.261380
    40  H    0.150028
    41  H    0.154084
    42  H    0.149604
    43  H    0.176051
    44  H    0.150209
    45  H    0.147830
    46  H    0.142650
    47  H    0.194403
    48  H    0.146936
    49  H    0.180178
    50  H    0.182900
    51  H    0.182311
    52  H    0.175517
    53  H    0.132142
    54  H    0.139161
    55  H    0.139013
    56  H    0.157845
 Sum of Mulliken charges =  -0.00000

 Dipole moment (field-independent basis, Debye):
    X=             -3.7712    Y=             -2.5900    Z=              3.3176  Tot=              5.6512
 Quadrupole moment (field-independent basis, Debye-Ang):
   XX=           -204.5756   YY=           -221.6742   ZZ=           -229.3831
   XY=             27.2072   XZ=             -1.9017   YZ=              0.1924

 Normal termination of Gaussian 16 at Fri Aug 29 22:09:15 2025.
