 Gaussian 16, Revision C.02,
 Gaussian 16:  ES64L-G16RevC.02  7-Dec-2021

 ----------------------------------------------------------
 # td=(50-50,nstates=3) b3lyp/6-31+g(d,p) geom=connectivity
 ----------------------------------------------------------

 -------------------
 Title Card Required
 -------------------
 Symbolic Z-matrix:
 Charge =  0 Multiplicity = 1

                         Standard orientation:
 ---------------------------------------------------------------------
 Center     Atomic      Atomic             Coordinates (Angstroms)
 Number     Number       Type             X           Y           Z
 ---------------------------------------------------------------------
      1          6           0        2.014200    0.166621    1.365031
      2          6           0        1.617561    0.086440   -0.117707
      3          6           0        2.727414   -0.581871   -0.945417
      4          6           0        0.295547   -0.672623   -0.337970
      5          6           0       -0.948186   -0.030438    0.351043
      6          6           0       -1.186630    1.349580   -0.111654
      7          7           0       -1.335315    2.442277   -0.472252
      8          6           0       -2.149436   -0.858280    0.141234
      9          7           0       -3.068223   -1.548835   -0.017299
     10          1           0        2.978065    0.673642    1.475942
     11          1           0        1.290456    0.728077    1.966114
     12          1           0        2.114416   -0.835428    1.801059
     13          1           0        1.487742    1.109938   -0.495151
     14          1           0        2.470888   -0.612999   -2.009854
     15          1           0        3.669385   -0.033255   -0.844257
     16          1           0        2.904093   -1.611535   -0.610682
     17          1           0        0.082980   -0.751920   -1.409070
     18          1           0        0.381311   -1.694289    0.051014
     19          1           0       -0.777380    0.017100    1.434370
 ---------------------------------------------------------------------

 SCF Done:  E(RB3LYP) =  -382.262589208     A.U. after   13 cycles

 Excitation energies and oscillator strengths:

 Excited State   1:      Triplet-A      5.7761 eV  214.65 nm  f=0.0000  <S**2>=2.000
      27 -> 35        -0.14706
      28 -> 34         0.15838
      28 -> 35         0.13775
      28 -> 37        -0.10348
      28 -> 38         0.12703
      28 -> 40        -0.10423
      28 -> 41        -0.13503
      29 -> 35        -0.18764
      29 -> 36         0.12589
      30 -> 35        -0.13221
      31 -> 41         0.15494
      32 -> 35         0.21020
      32 -> 41        -0.12166
      33 -> 34         0.23841
      33 -> 36         0.17902
 This state for optimization and/or second-order correction.
 Total Energy, E(TD-HF/TD-DFT) =  -382.050320588
 Copying the excited state density for this state as the 1-particle RhoCI density.

 Excited State   2:      Triplet-A      5.7837 eV  214.37 nm  f=0.0000  <S**2>=2.000
      27 -> 34        -0.10059
      27 -> 41        -0.11942
      28 -> 34        -0.11119
      28 -> 36        -0.14419
      28 -> 38         0.10468
      30 -> 35         0.16551
      31 -> 34         0.12756
      31 -> 35         0.35556
      31 -> 40        -0.12362
      31 -> 41         0.13438
      32 -> 35        -0.15386
      33 -> 34         0.11290
      33 -> 36         0.10128
      33 -> 38        -0.21080
      33 -> 41         0.12772

 Excited State   3:      Triplet-A      6.4631 eV  191.83 nm  f=0.0000  <S**2>=2.000
      28 -> 41        -0.16282
      29 -> 35         0.19028
      29 -> 36        -0.11266
      31 -> 35        -0.12811
      31 -> 38        -0.14795
      33 -> 34         0.17831
      33 -> 35         0.44272

 Excited State   4:      Singlet-A      7.2562 eV  170.87 nm  f=0.0047  <S**2>=0.000
      28 -> 41        -0.10535
      29 -> 35         0.14872
      31 -> 35        -0.11004
      33 -> 34         0.13409
      33 -> 35         0.60115

 Excited State   5:      Singlet-A      7.5708 eV  163.77 nm  f=0.0000  <S**2>=0.000
      27 -> 35        -0.15954
      28 -> 35        -0.34444
      29 -> 41         0.10076
      30 -> 34        -0.19887
      30 -> 35        -0.15339
      31 -> 34        -0.17382
      31 -> 35         0.12968
      31 -> 36        -0.15237
      32 -> 34         0.23136
      32 -> 36         0.11207
      33 -> 40        -0.12512
      33 -> 41         0.16343

 Excited State   6:      Singlet-A      7.6572 eV  161.92 nm  f=0.0290  <S**2>=0.000
      28 -> 35        -0.17464
      29 -> 35         0.16531
      31 -> 34        -0.11173
      32 -> 35        -0.23112
      33 -> 34         0.48747
      33 -> 35        -0.17329
      33 -> 36         0.12314

 The electronic state is 1-A.
 Alpha  occ. eigenvalues --  -14.37180 -14.37071 -10.30649 -10.26443 -10.26372
 Alpha  occ. eigenvalues --  -10.23879 -10.22535 -10.20410 -10.20068  -0.94672
 Alpha  occ. eigenvalues --   -0.93267  -0.86976  -0.81571  -0.71446  -0.70440
 Alpha  occ. eigenvalues --   -0.61493  -0.58049  -0.55322  -0.50393  -0.47326
 Alpha  occ. eigenvalues --   -0.45449  -0.42988  -0.41243  -0.40262  -0.39664
 Alpha  occ. eigenvalues --   -0.39133  -0.37995  -0.36933  -0.36678  -0.36120
 Alpha  occ. eigenvalues --   -0.35729  -0.35328  -0.34274
 Alpha virt. eigenvalues --   -0.02512  -0.02394  -0.00187   0.00311   0.00521
 Alpha virt. eigenvalues --    0.01152   0.01352   0.02341   0.03506   0.04128
 Alpha virt. eigenvalues --    0.04265   0.05079   0.05648   0.06904   0.07562

 Mulliken charges:
               1
     1  C   -0.540236
     2  C    0.415763
     3  C   -0.616198
     4  C   -0.636645
     5  C    0.429677
     6  C    0.280115
     7  N   -0.462923
     8  C   -0.023575
     9  N   -0.458632
    10  H    0.156190
    11  H    0.139961
    12  H    0.152884
    13  H    0.152855
    14  H    0.149105
    15  H    0.152637
    16  H    0.150188
    17  H    0.170950
    18  H    0.169385
    19  H    0.218499
 Sum of Mulliken charges =  -0.00000

 Dipole moment (field-independent basis, Debye):
    X=              4.4834    Y=             -1.3094    Z=              1.3629  Tot=              4.8655
 Quadrupole moment (field-independent basis, Debye-Ang):
   XX=            -66.7626   YY=            -67.7042   ZZ=            -53.7984
   XY=             -2.5381   XZ=             -2.1943   YZ=              1.9647

 Normal termination of Gaussian 16 at Fri Aug 29 21:27:52 2025.
