 Gaussian 16, Revision C.02,
 Gaussian 16:  ES64L-G16RevC.02  7-Dec-2021

 ----------------------------------------------------------
 # td=(50-50,nstates=3) b3lyp/6-31+g(d,p) geom=connectivity
 ----------------------------------------------------------

 -------------------
 Title Card Required
 -------------------
 Symbolic Z-matrix:
 Charge =  0 Multiplicity = 1

                         Standard orientation:
 ---------------------------------------------------------------------
 Center     Atomic      Atomic             Coordinates (Angstroms)
 Number     Number       Type             X           Y           Z
 ---------------------------------------------------------------------
      1          6           0       -3.458626   -2.122958    0.001530
      2          6           0       -2.872240   -0.902385    0.000280
      3          6           0       -3.737010    0.249168   -0.001124
      4          7           0       -4.489164    1.136753   -0.002248
      5          6           0       -1.420238   -0.733923    0.000014
      6          6           0       -0.568706    0.330108    0.000212
      7          6           0       -0.930970    1.800000    0.000817
      8          6           0       -0.458673    2.523187    1.280996
      9          6           0       -0.459218    2.524143   -1.279008
     10          6           0        0.788322   -0.236950   -0.000119
     11          6           0        1.988492    0.391786   -0.000043
     12          6           0        3.358400   -0.224145   -0.000418
     13          6           0        4.121422    0.209881   -1.270807
     14          6           0        4.121676    0.208807    1.270181
     15          6           0        0.613205   -1.719374   -0.000330
     16          8           0        1.403364   -2.632253   -0.000509
     17          8           0       -0.748761   -1.958522   -0.000287
     18          1           0       -2.858185   -3.023836    0.002418
     19          1           0       -4.538046   -2.216170    0.001598
     20          1           0       -2.019938    1.863540    0.001082
     21          1           0       -0.836526    3.550988    1.283630
     22          1           0       -0.837838    2.022690    2.177513
     23          1           0        0.631475    2.570338    1.359258
     24          1           0       -0.836779    3.552053   -1.280566
     25          1           0       -0.839056    2.024508   -2.175721
     26          1           0        0.630901    2.571024   -1.357860
     27          1           0        1.984656    1.480795    0.000250
     28          1           0        3.266015   -1.311789   -0.000857
     29          1           0        5.127024   -0.224105   -1.270176
     30          1           0        3.608754   -0.124339   -2.178128
     31          1           0        4.226564    1.300820   -1.319476
     32          1           0        5.127285   -0.225159    1.268984
     33          1           0        3.609192   -0.126212    2.177313
     34          1           0        4.226803    1.299705    1.319760
 ---------------------------------------------------------------------

 SCF Done:  E(RB3LYP) =  -748.935721159     A.U. after   16 cycles

 Excitation energies and oscillator strengths:

 Excited State   1:      Triplet-A      1.7357 eV  714.33 nm  f=0.0000  <S**2>=2.000
      60 -> 64         0.13295
      62 -> 63         0.70000
      62 <- 63         0.15698
 This state for optimization and/or second-order correction.
 Total Energy, E(TD-HF/TD-DFT) =  -748.871936465
 Copying the excited state density for this state as the 1-particle RhoCI density.

 Excited State   2:      Triplet-A      2.9633 eV  418.40 nm  f=0.0000  <S**2>=2.000
      59 -> 63         0.10918
      60 -> 63         0.34274
      62 -> 64         0.58534

 Excited State   3:      Singlet-A      3.5504 eV  349.21 nm  f=0.4069  <S**2>=0.000
      62 -> 63         0.69043

 Excited State   4:      Triplet-A      3.8187 eV  324.68 nm  f=0.0000  <S**2>=2.000
      61 -> 63         0.62680
      61 -> 64        -0.30051

 Excited State   5:      Singlet-A      4.0833 eV  303.64 nm  f=0.0000  <S**2>=0.000
      61 -> 63         0.67118
      61 -> 64        -0.20965

 Excited State   6:      Singlet-A      4.1579 eV  298.19 nm  f=0.0337  <S**2>=0.000
      60 -> 63        -0.19653
      62 -> 64         0.66861

 The electronic state is 1-A.
 Alpha  occ. eigenvalues --  -19.22526 -19.16379 -14.36081 -10.33845 -10.28545
 Alpha  occ. eigenvalues --  -10.26965 -10.25423 -10.23725 -10.23453 -10.23352
 Alpha  occ. eigenvalues --  -10.23040 -10.21959 -10.21328 -10.19535 -10.19535
 Alpha  occ. eigenvalues --  -10.19421 -10.19420  -1.13654  -1.05300  -0.93018
 Alpha  occ. eigenvalues --   -0.86894  -0.85176  -0.82796  -0.79206  -0.75261
 Alpha  occ. eigenvalues --   -0.70214  -0.70092  -0.70004  -0.66829  -0.63917
 Alpha  occ. eigenvalues --   -0.60650  -0.58737  -0.55922  -0.53362  -0.51000
 Alpha  occ. eigenvalues --   -0.49228  -0.48140  -0.47252  -0.46055  -0.45830
 Alpha  occ. eigenvalues --   -0.44709  -0.43657  -0.42960  -0.42795  -0.42431
 Alpha  occ. eigenvalues --   -0.40767  -0.40469  -0.40349  -0.40113  -0.38244
 Alpha  occ. eigenvalues --   -0.37319  -0.37111  -0.36611  -0.36532  -0.36143
 Alpha  occ. eigenvalues --   -0.36036  -0.35421  -0.33412  -0.32117  -0.30615
 Alpha  occ. eigenvalues --   -0.29006  -0.23716
 Alpha virt. eigenvalues --   -0.10096  -0.06287  -0.01048  -0.00003   0.00617
 Alpha virt. eigenvalues --    0.00825   0.01033   0.01678   0.02098   0.02749
 Alpha virt. eigenvalues --    0.03302   0.03735   0.04339   0.04426   0.04645

 Mulliken charges:
               1
     1  C   -0.278516
     2  C    0.851871
     3  C   -0.682632
     4  N   -0.477950
     5  C   -0.064755
     6  C   -0.351855
     7  C    0.153714
     8  C   -0.548656
     9  C   -0.548891
    10  C    0.901480
    11  C   -0.281791
    12  C    0.282286
    13  C   -0.576229
    14  C   -0.576255
    15  C    0.461171
    16  O   -0.502577
    17  O   -0.352144
    18  H    0.183376
    19  H    0.167535
    20  H    0.138774
    21  H    0.151678
    22  H    0.154107
    23  H    0.136889
    24  H    0.151668
    25  H    0.154124
    26  H    0.136879
    27  H    0.118461
    28  H    0.182937
    29  H    0.153565
    30  H    0.156921
    31  H    0.147163
    32  H    0.153566
    33  H    0.156923
    34  H    0.147162
 Sum of Mulliken charges =  -0.00000

 Dipole moment (field-independent basis, Debye):
    X=              2.3784    Y=              1.4590    Z=              0.0048  Tot=              2.7902
 Quadrupole moment (field-independent basis, Debye-Ang):
   XX=           -109.0307   YY=           -109.4479   ZZ=           -103.4860
   XY=             16.6415   XZ=             -0.0194   YZ=             -0.0008

 Normal termination of Gaussian 16 at Fri Aug 29 21:25:33 2025.
