 Gaussian 16, Revision C.02,
 Gaussian 16:  ES64L-G16RevC.02  7-Dec-2021

 ----------------------------------------------------------
 # td=(50-50,nstates=3) b3lyp/6-31+g(d,p) geom=connectivity
 ----------------------------------------------------------

 -------------------
 Title Card Required
 -------------------
 Symbolic Z-matrix:
 Charge =  0 Multiplicity = 1

                         Standard orientation:
 ---------------------------------------------------------------------
 Center     Atomic      Atomic             Coordinates (Angstroms)
 Number     Number       Type             X           Y           Z
 ---------------------------------------------------------------------
      1          6           0        2.489148   -1.844886    2.999119
      2          6           0        0.980710   -1.621727    2.848052
      3          7           0        0.652858   -0.427518    2.054298
      4          6           0        1.167756    0.864808    2.530598
      5          6           0        0.569292    1.314539    3.870629
      6          6           0       -0.385962   -0.447880    1.139096
      7          6           0       -0.495171    0.262028   -0.032008
      8         16           0        0.720935    1.325666   -0.829055
      9          8           0        0.247023    1.453141   -2.275056
     10          6           0        2.147814    0.201866   -0.856842
     11          6           0        3.370224    0.698238   -0.570445
     12          6           0        3.741970    2.089061   -0.206914
     13          6           0        4.591968    2.317179    0.888891
     14          6           0        4.970944    3.615099    1.230595
     15          6           0        4.518784    4.700900    0.473800
     16          6           0        3.692690    4.479940   -0.630544
     17          6           0        3.309209    3.182010   -0.974957
     18          8           0        4.498169   -0.094791   -0.586296
     19          6           0        4.401412   -1.425101   -0.981188
     20          6           0        5.717050   -2.097722   -0.943143
     21          6           0        6.904120   -1.347624   -1.010374
     22          6           0        8.146835   -1.983638   -1.000225
     23          6           0        8.228182   -3.375443   -0.917189
     24          6           0        7.052910   -4.129355   -0.836587
     25          6           0        5.810457   -3.497490   -0.842331
     26          6           0        3.236617   -1.959409   -1.373117
     27          6           0        1.936791   -1.204229   -1.363964
     28          6           0       -1.796608   -0.043491   -0.744919
     29          6           0       -2.715588    1.095163   -1.202207
     30          6           0       -3.008667    1.173612   -2.550230
     31          6           0       -3.860805    2.172417   -3.073824
     32          6           0       -4.423377    3.105394   -2.235376
     33          6           0       -4.155008    3.072679   -0.840651
     34          6           0       -4.733333    4.032042    0.036146
     35          6           0       -4.482668    4.004501    1.389728
     36          6           0       -3.634053    3.005648    1.923751
     37          6           0       -3.056227    2.062363    1.100428
     38          6           0       -3.290506    2.056040   -0.304171
     39          6           0       -2.447742   -1.046734    0.194670
     40          6           0       -3.715074   -1.613809   -0.026426
     41          6           0       -4.818668   -2.102081   -0.232205
     42         14           0       -6.497537   -2.837359   -0.495063
     43          6           0       -7.073035   -2.388203   -2.235855
     44          6           0       -6.351671   -4.709117   -0.295793
     45          6           0       -7.657159   -2.111407    0.805526
     46          6           0       -1.616398   -1.272805    1.264607
     47          6           0       -1.965307   -2.116485    2.356883
     48          7           0       -2.271400   -2.799110    3.250263
     49          1           0        2.660602   -2.799264    3.507893
     50          1           0        2.983323   -1.879578    2.023290
     51          1           0        2.967734   -1.066519    3.601250
     52          1           0        0.512993   -1.585412    3.841276
     53          1           0        0.556601   -2.485953    2.334005
     54          1           0        2.257830    0.808037    2.607846
     55          1           0        0.956605    1.620493    1.772297
     56          1           0        0.977256    2.293086    4.146847
     57          1           0       -0.519668    1.405953    3.804253
     58          1           0        0.803371    0.616327    4.680410
     59          1           0        4.952330    1.473964    1.469527
     60          1           0        5.621180    3.778857    2.085076
     61          1           0        4.816824    5.711287    0.738306
     62          1           0        3.351400    5.315939   -1.233624
     63          1           0        2.690484    3.017697   -1.851619
     64          1           0        6.847643   -0.267323   -1.078982
     65          1           0        9.053078   -1.387751   -1.059590
     66          1           0        9.195791   -3.868453   -0.907391
     67          1           0        7.103713   -5.211282   -0.755199
     68          1           0        4.908818   -4.094507   -0.748918
     69          1           0        3.228327   -2.984941   -1.725444
     70          1           0        1.199845   -1.728435   -0.739282
     71          1           0        1.499643   -1.166960   -2.373453
     72          1           0       -1.532972   -0.589837   -1.663093
     73          1           0       -2.552002    0.464526   -3.233536
     74          1           0       -4.057195    2.200153   -4.141459
     75          1           0       -5.077117    3.881033   -2.625844
     76          1           0       -5.383433    4.793604   -0.387295
     77          1           0       -4.932333    4.743177    2.046786
     78          1           0       -3.437697    2.980607    2.991867
     79          1           0       -2.410129    1.311524    1.534820
     80          1           0       -8.070384   -2.800107   -2.430747
     81          1           0       -7.124123   -1.302073   -2.366637
     82          1           0       -6.390121   -2.785937   -2.994286
     83          1           0       -7.329168   -5.187803   -0.429200
     84          1           0       -5.979142   -4.971306    0.700102
     85          1           0       -5.664161   -5.134662   -1.034675
     86          1           0       -7.309179   -2.344205    1.817429
     87          1           0       -7.721051   -1.021982    0.714076
     88          1           0       -8.667826   -2.521349    0.691340
 ---------------------------------------------------------------------

 SCF Done:  E(RB3LYP) =  -2572.19017047     A.U. after   20 cycles

 Excitation energies and oscillator strengths:

 Excited State   1:      Triplet-A      1.6938 eV  732.00 nm  f=0.0000  <S**2>=2.000
     170 -> 177       -0.10195
     171 -> 177        0.18546
     172 -> 177       -0.13837
     173 -> 177       -0.13585
     176 -> 177        0.62876
 This state for optimization and/or second-order correction.
 Total Energy, E(TD-HF/TD-DFT) =  -2572.12792511
 Copying the excited state density for this state as the 1-particle RhoCI density.

 Excited State   2:      Singlet-A      2.6069 eV  475.60 nm  f=0.0835  <S**2>=0.000
     176 -> 177        0.69838

 Excited State   3:      Triplet-A      2.6514 eV  467.62 nm  f=0.0000  <S**2>=2.000
     171 -> 177        0.10667
     172 -> 177       -0.10720
     175 -> 177        0.24936
     175 -> 179        0.59335

 Excited State   4:      Triplet-A      2.6916 eV  460.63 nm  f=0.0000  <S**2>=2.000
     170 -> 177       -0.18184
     171 -> 177        0.38072
     172 -> 177       -0.32636
     173 -> 177       -0.10230
     174 -> 177       -0.16057
     174 -> 178       -0.15689
     175 -> 179       -0.19984
     176 -> 177       -0.24168

 Excited State   5:      Singlet-A      2.8446 eV  435.85 nm  f=0.0058  <S**2>=0.000
     175 -> 177        0.70300

 Excited State   6:      Singlet-A      3.1676 eV  391.42 nm  f=0.0109  <S**2>=0.000
     174 -> 177        0.70162

 The electronic state is 1-A.
 Alpha  occ. eigenvalues --  -89.00327 -66.14222 -19.21700 -19.11419 -14.36814
 Alpha  occ. eigenvalues --  -14.34909 -10.28283 -10.26747 -10.26270 -10.25068
 Alpha  occ. eigenvalues --  -10.24960 -10.24181 -10.23137 -10.23133 -10.23115
 Alpha  occ. eigenvalues --  -10.22399 -10.22213 -10.21892 -10.21724 -10.21389
 Alpha  occ. eigenvalues --  -10.21030 -10.21001 -10.20955 -10.20900 -10.20865
 Alpha  occ. eigenvalues --  -10.20745 -10.20691 -10.20606 -10.20592 -10.20530
 Alpha  occ. eigenvalues --  -10.20492 -10.20468 -10.20464 -10.20357 -10.20349
 Alpha  occ. eigenvalues --  -10.19645 -10.19618 -10.19557 -10.19496 -10.19370
 Alpha  occ. eigenvalues --  -10.19363 -10.19275 -10.19108 -10.19025 -10.18729
 Alpha  occ. eigenvalues --  -10.16955 -10.16934 -10.16862  -8.04596  -6.01030
 Alpha  occ. eigenvalues --   -6.00963  -6.00355  -5.28500  -3.64516  -3.64321
 Alpha  occ. eigenvalues --   -3.64319  -1.10488  -1.00671  -0.96511  -0.91771
 Alpha  occ. eigenvalues --   -0.89614  -0.87998  -0.87399  -0.87067  -0.83634
 Alpha  occ. eigenvalues --   -0.82607  -0.82219  -0.79642  -0.79217  -0.77843
 Alpha  occ. eigenvalues --   -0.77361  -0.76305  -0.76163  -0.75881  -0.75320
 Alpha  occ. eigenvalues --   -0.74635  -0.74361  -0.73162  -0.71947  -0.70849
 Alpha  occ. eigenvalues --   -0.69603  -0.68434  -0.68381  -0.68313  -0.66048
 Alpha  occ. eigenvalues --   -0.65549  -0.64051  -0.62715  -0.62597  -0.62032
 Alpha  occ. eigenvalues --   -0.61954  -0.61322  -0.61100  -0.59934  -0.58104
 Alpha  occ. eigenvalues --   -0.56922  -0.55490  -0.54892  -0.53290  -0.51744
 Alpha  occ. eigenvalues --   -0.51650  -0.51252  -0.50736  -0.50216  -0.50011
 Alpha  occ. eigenvalues --   -0.49624  -0.49555  -0.48943  -0.47879  -0.47357
 Alpha  occ. eigenvalues --   -0.46709  -0.46439  -0.46166  -0.45322  -0.45091
 Alpha  occ. eigenvalues --   -0.44968  -0.44851  -0.43917  -0.43665  -0.43532
 Alpha  occ. eigenvalues --   -0.43427  -0.42849  -0.42623  -0.42445  -0.42278
 Alpha  occ. eigenvalues --   -0.42020  -0.41914  -0.41552  -0.41223  -0.41156
 Alpha  occ. eigenvalues --   -0.41026  -0.40188  -0.39935  -0.39717  -0.39697
 Alpha  occ. eigenvalues --   -0.39654  -0.39422  -0.38874  -0.38735  -0.38540
 Alpha  occ. eigenvalues --   -0.38421  -0.38186  -0.37971  -0.37746  -0.37602
 Alpha  occ. eigenvalues --   -0.37319  -0.36902  -0.36427  -0.36297  -0.35893
 Alpha  occ. eigenvalues --   -0.35835  -0.35726  -0.35508  -0.34806  -0.34458
 Alpha  occ. eigenvalues --   -0.34060  -0.33614  -0.33002  -0.32844  -0.31859
 Alpha  occ. eigenvalues --   -0.31776  -0.31298  -0.30676  -0.28762  -0.27897
 Alpha  occ. eigenvalues --   -0.27556  -0.27187  -0.26902  -0.26575  -0.25397
 Alpha  occ. eigenvalues --   -0.24723  -0.24673  -0.23835  -0.22423  -0.21843
 Alpha  occ. eigenvalues --   -0.20627
 Alpha virt. eigenvalues --   -0.09011  -0.05821  -0.04818  -0.03917  -0.02718
 Alpha virt. eigenvalues --   -0.02268  -0.02010  -0.01334  -0.00887  -0.00846
 Alpha virt. eigenvalues --   -0.00633  -0.00262  -0.00168   0.00290   0.00714

 Mulliken charges:
               1
     1  C   -0.625456
     2  C    0.089408
     3  N    0.106936
     4  C    0.186377
     5  C   -0.755307
     6  C   -0.072638
     7  C   -1.487259
     8  S    1.287280
     9  O   -0.549039
    10  C   -0.482924
    11  C    0.244226
    12  C   -0.157386
    13  C   -0.226382
    14  C   -0.082841
    15  C   -0.173373
    16  C    0.008664
    17  C    0.162890
    18  O   -0.176243
    19  C    0.522066
    20  C    0.689881
    21  C    0.034610
    22  C   -0.165258
    23  C   -0.130914
    24  C   -0.179755
    25  C   -0.509209
    26  C   -1.076499
    27  C   -0.052549
    28  C   -0.049656
    29  C    0.284938
    30  C   -0.159798
    31  C    0.057742
    32  C    0.000573
    33  C   -0.139637
    34  C    0.191650
    35  C   -0.247402
    36  C   -0.041292
    37  C   -0.095243
    38  C   -0.339149
    39  C    0.116047
    40  C    0.659897
    41  C   -0.906969
    42  Si   1.274615
    43  C   -0.665982
    44  C   -0.667559
    45  C   -0.677598
    46  C   -0.587865
    47  C    0.393687
    48  N   -0.588089
    49  H    0.150616
    50  H    0.166649
    51  H    0.145800
    52  H    0.160176
    53  H    0.136958
    54  H    0.136954
    55  H    0.143337
    56  H    0.149586
    57  H    0.153172
    58  H    0.149212
    59  H    0.121672
    60  H    0.126762
    61  H    0.129085
    62  H    0.130946
    63  H    0.145779
    64  H    0.141169
    65  H    0.128345
    66  H    0.126288
    67  H    0.127423
    68  H    0.116417
    69  H    0.129148
    70  H    0.161208
    71  H    0.177900
    72  H    0.167114
    73  H    0.106835
    74  H    0.125430
    75  H    0.122315
    76  H    0.122729
    77  H    0.125003
    78  H    0.121845
    79  H    0.104819
    80  H    0.162797
    81  H    0.171440
    82  H    0.165869
    83  H    0.161874
    84  H    0.173841
    85  H    0.166059
    86  H    0.172551
    87  H    0.170607
    88  H    0.162051
 Sum of Mulliken charges =  -0.00000

 Dipole moment (field-independent basis, Debye):
    X=              2.2625    Y=              0.3010    Z=              0.5596  Tot=              2.3500
 Quadrupole moment (field-independent basis, Debye-Ang):
   XX=           -268.6496   YY=           -284.5531   ZZ=           -306.7127
   XY=             -5.0107   XZ=             18.5453   YZ=             17.8461

 Normal termination of Gaussian 16 at Fri Aug 29 21:17:10 2025.
