 Gaussian 16, Revision C.02,
 Gaussian 16:  ES64L-G16RevC.02  7-Dec-2021

 ----------------------------------------------------------
 # td=(50-50,nstates=3) b3lyp/6-31+g(d,p) geom=connectivity
 ----------------------------------------------------------

 -------------------
 Title Card Required
 -------------------
 Symbolic Z-matrix:
 Charge =  0 Multiplicity = 1

                         Standard orientation:
 ---------------------------------------------------------------------
 Center     Atomic      Atomic             Coordinates (Angstroms)
 Number     Number       Type             X           Y           Z
 ---------------------------------------------------------------------
      1          6           0       -4.058507   -0.717435   -0.725006
      2          6           0       -3.072831   -0.535709    0.445931
      3          6           0       -3.689984    0.336474    1.556764
      4          6           0       -1.727074    0.004940   -0.021296
      5          6           0       -1.609801    1.268342   -0.619980
      6          6           0       -0.366975    1.739625   -1.044541
      7          6           0        0.782683    0.962500   -0.882797
      8          6           0        0.697472   -0.302650   -0.285415
      9          6           0        1.922394   -1.183235   -0.070504
     10          6           0        2.783913   -1.360762   -1.331578
     11          6           0        2.779325   -0.717882    1.147082
     12          6           0        3.498033    0.543883    0.941943
     13          7           0        4.080992    1.534619    0.774151
     14          6           0       -0.561979   -0.757795    0.134282
     15          1           0       -4.993422   -1.169180   -0.374394
     16          1           0       -4.306886    0.244188   -1.188197
     17          1           0       -3.637161   -1.363401   -1.502146
     18          1           0       -2.886159   -1.529450    0.874676
     19          1           0       -3.006344    0.441274    2.405543
     20          1           0       -4.622687   -0.108481    1.921623
     21          1           0       -3.922830    1.342380    1.189543
     22          1           0       -2.490533    1.889385   -0.759164
     23          1           0       -0.290144    2.720406   -1.505505
     24          1           0        1.738855    1.351468   -1.217032
     25          1           0        1.553552   -2.174085    0.222263
     26          1           0        3.603201   -2.064244   -1.145146
     27          1           0        2.178783   -1.752125   -2.154535
     28          1           0        3.226678   -0.415290   -1.658875
     29          1           0        2.141376   -0.607215    2.030856
     30          1           0        3.526231   -1.487303    1.378736
     31          1           0       -0.639469   -1.742436    0.593378
 ---------------------------------------------------------------------

 SCF Done:  E(RB3LYP) =  -560.417450901     A.U. after   14 cycles

 Excitation energies and oscillator strengths:

 Excited State   1:      Triplet-A      3.6887 eV  336.12 nm  f=0.0000  <S**2>=2.000
      50 -> 52         0.32376
      50 -> 53        -0.28065
      51 -> 52         0.39584
      51 -> 53         0.36062
 This state for optimization and/or second-order correction.
 Total Energy, E(TD-HF/TD-DFT) =  -560.281894358
 Copying the excited state density for this state as the 1-particle RhoCI density.

 Excited State   2:      Triplet-A      4.5339 eV  273.46 nm  f=0.0000  <S**2>=2.000
      50 -> 52        -0.22478
      50 -> 53        -0.25594
      51 -> 52        -0.41588
      51 -> 53         0.42343
      51 -> 54        -0.13688

 Excited State   3:      Triplet-A      4.5777 eV  270.84 nm  f=0.0000  <S**2>=2.000
      50 -> 52         0.43044
      50 -> 53        -0.30514
      50 -> 54         0.10655
      51 -> 52        -0.33698
      51 -> 53        -0.28631

 Excited State   4:      Singlet-A      5.2051 eV  238.20 nm  f=0.0015  <S**2>=0.000
      50 -> 52        -0.33092
      50 -> 53        -0.32225
      51 -> 52         0.38844
      51 -> 53        -0.34645

 Excited State   5:      Singlet-A      5.7356 eV  216.17 nm  f=0.0007  <S**2>=0.000
      51 -> 53         0.23907
      51 -> 54         0.65438

 Excited State   6:      Singlet-A      5.7819 eV  214.43 nm  f=0.0098  <S**2>=0.000
      50 -> 52         0.32309
      50 -> 53        -0.26215
      51 -> 52         0.40982
      51 -> 53         0.34766
      51 -> 54        -0.17731

 The electronic state is 1-A.
 Alpha  occ. eigenvalues --  -14.34211 -10.24344 -10.23585 -10.22644 -10.20804
 Alpha  occ. eigenvalues --  -10.20492 -10.20423 -10.19872 -10.19749 -10.19562
 Alpha  occ. eigenvalues --  -10.19508 -10.19337 -10.18406 -10.18402  -0.91132
 Alpha  occ. eigenvalues --   -0.87241  -0.83426  -0.80322  -0.75545  -0.74051
 Alpha  occ. eigenvalues --   -0.72518  -0.69089  -0.64803  -0.61821  -0.60629
 Alpha  occ. eigenvalues --   -0.55700  -0.52261  -0.50719  -0.48257  -0.48118
 Alpha  occ. eigenvalues --   -0.46130  -0.45592  -0.43960  -0.43202  -0.42496
 Alpha  occ. eigenvalues --   -0.41965  -0.39359  -0.39248  -0.38461  -0.38361
 Alpha  occ. eigenvalues --   -0.37429  -0.36343  -0.36176  -0.34997  -0.34494
 Alpha  occ. eigenvalues --   -0.33620  -0.33242  -0.32912  -0.32060  -0.25688
 Alpha  occ. eigenvalues --   -0.24891
 Alpha virt. eigenvalues --   -0.02048  -0.01759  -0.01376   0.00184   0.01126
 Alpha virt. eigenvalues --    0.01739   0.01879   0.02130   0.02956   0.03005
 Alpha virt. eigenvalues --    0.03558   0.03907   0.05053   0.05357   0.05723

 Mulliken charges:
               1
     1  C   -0.566418
     2  C    0.455270
     3  C   -0.567252
     4  C   -0.271603
     5  C   -0.107207
     6  C   -0.119039
     7  C   -0.293284
     8  C    0.057999
     9  C    0.278605
    10  C   -0.540533
    11  C   -0.306885
    12  C    0.213219
    13  N   -0.478342
    14  C   -0.191849
    15  H    0.142166
    16  H    0.147283
    17  H    0.148313
    18  H    0.115967
    19  H    0.148181
    20  H    0.142229
    21  H    0.147409
    22  H    0.116806
    23  H    0.127984
    24  H    0.132885
    25  H    0.128606
    26  H    0.144115
    27  H    0.155499
    28  H    0.165121
    29  H    0.188300
    30  H    0.182929
    31  H    0.103527
 Sum of Mulliken charges =  -0.00000

 Dipole moment (field-independent basis, Debye):
    X=             -2.5150    Y=             -3.4248    Z=              0.2325  Tot=              4.2554
 Quadrupole moment (field-independent basis, Debye-Ang):
   XX=            -96.2205   YY=            -87.1336   ZZ=            -86.5329
   XY=            -13.8950   XZ=             -1.9609   YZ=             -5.3503

 Normal termination of Gaussian 16 at Fri Aug 29 19:24:46 2025.
