 Gaussian 16, Revision C.02,
 Gaussian 16:  ES64L-G16RevC.02  7-Dec-2021

 ----------------------------------------------------------
 # td=(50-50,nstates=3) b3lyp/6-31+g(d,p) geom=connectivity
 ----------------------------------------------------------

 -------------------
 Title Card Required
 -------------------
 Symbolic Z-matrix:
 Charge =  0 Multiplicity = 1

                         Standard orientation:
 ---------------------------------------------------------------------
 Center     Atomic      Atomic             Coordinates (Angstroms)
 Number     Number       Type             X           Y           Z
 ---------------------------------------------------------------------
      1          6           0       -5.783279   -0.340543    1.866780
      2          6           0       -4.781860    0.453349    1.442569
      3          6           0       -4.490043    1.673829    2.153647
      4          7           0       -4.257329    2.649402    2.742323
      5          6           0       -3.940807    0.154839    0.268713
      6          6           0       -3.259249   -0.947828   -0.093971
      7          6           0       -3.189909   -2.271805    0.627613
      8          6           0       -3.798414   -3.409988   -0.218677
      9          6           0       -1.760159   -2.631958    1.080292
     10          6           0       -2.611164   -0.637876   -1.433858
     11          6           0       -1.094445   -0.858479   -1.609522
     12          8           0       -0.669843   -1.623334   -2.448966
     13          6           0       -0.183236    0.037061   -0.724580
     14          8           0       -0.788901    0.908718   -0.098918
     15          6           0        1.258303   -0.193462   -0.702733
     16          6           0        2.165211    0.792905   -0.379092
     17          6           0        2.010944    2.323808   -0.281605
     18          6           0        1.489676    2.689152    1.133513
     19          6           0        3.392212    3.003127   -0.472694
     20          6           0        1.079222    2.897988   -1.374003
     21          8           0        3.459438    0.452951   -0.136847
     22          6           0        3.839891   -0.867279    0.141190
     23          6           0        5.169673   -0.908307    0.873288
     24          6           0        5.595545   -2.363313    1.141501
     25          6           0        6.249652   -0.217736    0.004719
     26          6           0        5.038619   -0.163380    2.223706
     27          6           0        3.054274   -1.866179   -0.255048
     28          6           0        1.784816   -1.596930   -1.015491
     29          6           0       -2.995084    0.831187   -1.655949
     30          8           0       -2.727447    1.548867   -2.580292
     31          8           0       -3.807420    1.224465   -0.616374
     32          1           0       -6.049780   -1.238871    1.321678
     33          1           0       -6.353429   -0.095832    2.756108
     34          1           0       -3.794802   -2.169082    1.535204
     35          1           0       -3.798766   -4.346639    0.348915
     36          1           0       -4.830797   -3.187727   -0.508857
     37          1           0       -3.219589   -3.578510   -1.133720
     38          1           0       -1.782101   -3.538688    1.694275
     39          1           0       -1.314125   -1.829184    1.674554
     40          1           0       -1.105814   -2.838765    0.226794
     41          1           0       -3.066207   -1.226379   -2.239918
     42          1           0        1.442253    3.779987    1.225548
     43          1           0        0.493354    2.282544    1.307246
     44          1           0        2.169512    2.316262    1.907521
     45          1           0        3.244791    4.086948   -0.446788
     46          1           0        3.842042    2.746791   -1.437195
     47          1           0        4.100163    2.739964    0.315104
     48          1           0        1.415568    2.597685   -2.372221
     49          1           0        0.038299    2.608100   -1.251848
     50          1           0        1.118748    3.990980   -1.325793
     51          1           0        6.558656   -2.370101    1.661869
     52          1           0        4.872034   -2.887525    1.774681
     53          1           0        5.715860   -2.928313    0.211260
     54          1           0        7.211572   -0.229054    0.528823
     55          1           0        5.988414    0.822539   -0.205330
     56          1           0        6.376025   -0.738272   -0.950691
     57          1           0        4.749363    0.880643    2.077393
     58          1           0        4.288938   -0.640392    2.864177
     59          1           0        5.997578   -0.177881    2.753125
     60          1           0        3.335530   -2.891791   -0.050018
     61          1           0        1.041138   -2.353094   -0.753180
     62          1           0        1.947925   -1.718596   -2.095659
 ---------------------------------------------------------------------

 SCF Done:  E(RB3LYP) =  -1402.20217665     A.U. after   17 cycles

 Excitation energies and oscillator strengths:

 Excited State   1:      Triplet-A      1.9709 eV  629.08 nm  f=0.0000  <S**2>=2.000
     111 ->115         0.20384
     114 ->115         0.65782
     114 ->117         0.14154
 This state for optimization and/or second-order correction.
 Total Energy, E(TD-HF/TD-DFT) =  -1402.12974766
 Copying the excited state density for this state as the 1-particle RhoCI density.

 Excited State   2:      Triplet-A      2.0843 eV  594.85 nm  f=0.0000  <S**2>=2.000
     112 ->115        -0.44341
     113 ->115         0.53319

 Excited State   3:      Singlet-A      2.5417 eV  487.81 nm  f=0.0002  <S**2>=0.000
     112 ->115        -0.35678
     113 ->115         0.60223

 Excited State   4:      Singlet-A      2.7283 eV  454.43 nm  f=0.0679  <S**2>=0.000
     114 ->115         0.70157

 Excited State   5:      Triplet-A      2.7362 eV  453.13 nm  f=0.0000  <S**2>=2.000
     109 ->116        -0.26496
     112 ->115        -0.10384
     112 ->116         0.27989
     113 ->116         0.52751
     113 ->118         0.11499

 Excited State   6:      Singlet-A      3.2664 eV  379.57 nm  f=0.0022  <S**2>=0.000
     112 ->115         0.60134
     113 ->115         0.36311

 The electronic state is 1-A.
 Alpha  occ. eigenvalues --  -19.22522 -19.22253 -19.19153 -19.16755 -19.16213
 Alpha  occ. eigenvalues --  -14.35448 -10.34188 -10.31740 -10.30042 -10.29239
 Alpha  occ. eigenvalues --  -10.28359 -10.27285 -10.26110 -10.24565 -10.24316
 Alpha  occ. eigenvalues --  -10.24241 -10.23168 -10.22875 -10.22603 -10.22262
 Alpha  occ. eigenvalues --  -10.21723 -10.21207 -10.20242 -10.20237 -10.20088
 Alpha  occ. eigenvalues --  -10.19238 -10.18937 -10.18850 -10.18131 -10.17698
 Alpha  occ. eigenvalues --  -10.17283  -1.13559  -1.11184  -1.09106  -1.06278
 Alpha  occ. eigenvalues --   -1.05422  -0.92160  -0.86890  -0.85730  -0.84559
 Alpha  occ. eigenvalues --   -0.83621  -0.82069  -0.80421  -0.77391  -0.75166
 Alpha  occ. eigenvalues --   -0.71392  -0.70927  -0.70130  -0.69900  -0.69550
 Alpha  occ. eigenvalues --   -0.68863  -0.68486  -0.67302  -0.65222  -0.63963
 Alpha  occ. eigenvalues --   -0.61603  -0.59635  -0.58154  -0.57058  -0.56185
 Alpha  occ. eigenvalues --   -0.55610  -0.51735  -0.50434  -0.50228  -0.49675
 Alpha  occ. eigenvalues --   -0.48964  -0.48575  -0.48294  -0.47490  -0.47260
 Alpha  occ. eigenvalues --   -0.46660  -0.45833  -0.45566  -0.45181  -0.44951
 Alpha  occ. eigenvalues --   -0.44592  -0.43849  -0.43733  -0.43425  -0.43143
 Alpha  occ. eigenvalues --   -0.42686  -0.41997  -0.41514  -0.41159  -0.40736
 Alpha  occ. eigenvalues --   -0.40615  -0.40104  -0.39804  -0.39304  -0.39109
 Alpha  occ. eigenvalues --   -0.38522  -0.38228  -0.37912  -0.37716  -0.37553
 Alpha  occ. eigenvalues --   -0.37288  -0.37119  -0.36450  -0.36199  -0.35743
 Alpha  occ. eigenvalues --   -0.35595  -0.34926  -0.34715  -0.34626  -0.33867
 Alpha  occ. eigenvalues --   -0.33610  -0.33074  -0.32041  -0.30652  -0.29459
 Alpha  occ. eigenvalues --   -0.27605  -0.26888  -0.24869  -0.23427
 Alpha virt. eigenvalues --   -0.11176  -0.08328  -0.04132  -0.03298  -0.01461
 Alpha virt. eigenvalues --   -0.00873   0.00092   0.00446   0.00739   0.00998
 Alpha virt. eigenvalues --    0.01126   0.01681   0.01813   0.02062   0.02650

 Mulliken charges:
               1
     1  C   -0.334703
     2  C    0.362468
     3  C   -0.196716
     4  N   -0.473848
     5  C    0.445684
     6  C   -0.349323
     7  C    0.246064
     8  C   -0.544300
     9  C   -0.561140
    10  C    0.748374
    11  C   -0.241365
    12  O   -0.325003
    13  C    0.332697
    14  O   -0.376903
    15  C    0.767527
    16  C    0.207452
    17  C   -0.128866
    18  C   -0.490041
    19  C   -0.359348
    20  C   -0.470375
    21  O   -0.260956
    22  C    0.258191
    23  C    0.164199
    24  C   -0.578712
    25  C   -0.478470
    26  C   -0.450114
    27  C   -0.148641
    28  C   -1.073403
    29  C    0.044850
    30  O   -0.381303
    31  O   -0.180387
    32  H    0.157025
    33  H    0.169526
    34  H    0.129614
    35  H    0.151453
    36  H    0.147654
    37  H    0.163284
    38  H    0.149142
    39  H    0.165113
    40  H    0.147571
    41  H    0.195320
    42  H    0.151026
    43  H    0.193565
    44  H    0.140170
    45  H    0.145810
    46  H    0.152041
    47  H    0.152310
    48  H    0.148107
    49  H    0.184047
    50  H    0.145074
    51  H    0.151900
    52  H    0.154675
    53  H    0.155814
    54  H    0.147580
    55  H    0.163435
    56  H    0.153270
    57  H    0.155808
    58  H    0.152569
    59  H    0.148943
    60  H    0.133540
    61  H    0.133789
    62  H    0.187236
 Sum of Mulliken charges =  -0.00000

 Dipole moment (field-independent basis, Debye):
    X=              2.2240    Y=             -6.7920    Z=              2.0453  Tot=              7.4338
 Quadrupole moment (field-independent basis, Debye-Ang):
   XX=           -162.7927   YY=           -193.9648   ZZ=           -202.8476
   XY=             24.8339   XZ=             -1.8459   YZ=             -8.5710

 Normal termination of Gaussian 16 at Fri Aug 29 19:17:42 2025.
