 Gaussian 16, Revision C.02,
 Gaussian 16:  ES64L-G16RevC.02  7-Dec-2021

 -----------------------------------------
 # opt b3lyp/6-31+g(d,p) geom=connectivity
 -----------------------------------------

 -------------------
 Title Card Required
 -------------------
 Symbolic Z-matrix:
 Charge =  0 Multiplicity = 1

 SCF Done:  E(RB3LYP) =  -1349.33124808     A.U. after   17 cycles
 SCF Done:  E(RB3LYP) =  -1349.43448764     A.U. after   17 cycles
 SCF Done:  E(RB3LYP) =  -1349.50420700     A.U. after   16 cycles
 SCF Done:  E(RB3LYP) =  -1349.51177662     A.U. after   15 cycles
 SCF Done:  E(RB3LYP) =  -1349.51345056     A.U. after   16 cycles
 SCF Done:  E(RB3LYP) =  -1349.51297051     A.U. after   15 cycles
 SCF Done:  E(RB3LYP) =  -1349.51371565     A.U. after   14 cycles
 SCF Done:  E(RB3LYP) =  -1349.51377348     A.U. after   14 cycles
 SCF Done:  E(RB3LYP) =  -1349.51381340     A.U. after   13 cycles
 SCF Done:  E(RB3LYP) =  -1349.51387901     A.U. after   14 cycles
 SCF Done:  E(RB3LYP) =  -1349.51975591     A.U. after   12 cycles
 SCF Done:  E(RB3LYP) =  -1349.51975669     A.U. after   12 cycles
 SCF Done:  E(RB3LYP) =  -1349.51975755     A.U. after   12 cycles
 SCF Done:  E(RB3LYP) =  -1349.51975815     A.U. after   12 cycles
 SCF Done:  E(RB3LYP) =  -1349.51975858     A.U. after   12 cycles
 SCF Done:  E(RB3LYP) =  -1349.51975877     A.U. after   11 cycles
 SCF Done:  E(RB3LYP) =  -1349.51975903     A.U. after   12 cycles
 SCF Done:  E(RB3LYP) =  -1349.51975925     A.U. after   11 cycles
 SCF Done:  E(RB3LYP) =  -1349.51975938     A.U. after   11 cycles
 SCF Done:  E(RB3LYP) =  -1349.51975943     A.U. after   11 cycles
 Optimization completed.
    -- Stationary point found.

                         Standard orientation:
 ---------------------------------------------------------------------
 Center     Atomic      Atomic             Coordinates (Angstroms)
 Number     Number       Type             X           Y           Z
 ---------------------------------------------------------------------
      1          6           0       -1.187315   -3.990874    1.388363
      2          6           0       -0.940701   -2.809128    0.774976
      3          6           0       -1.981848   -1.862955    0.491100
      4          6           0       -2.847181   -1.038748    0.235431
      5         14           0       -4.187296    0.179557   -0.156185
      6          6           0       -3.683437    1.865318    0.525029
      7          6           0       -4.390323    0.247358   -2.031657
      8          6           0       -5.776689   -0.425258    0.666317
      9          6           0        0.385842   -2.435267    0.370160
     10          6           0        1.499974   -2.085109    0.009879
     11         14           0        3.149023   -1.489065   -0.557648
     12          6           0        4.407369   -2.887960   -0.433824
     13          6           0        2.993489   -0.900285   -2.344585
     14          6           0        3.688913   -0.060240    0.596191
     15          6           0        2.592906    0.776080    1.312528
     16          6           0        1.627719    1.426287    0.377636
     17          6           0        1.472693    2.761153    0.192999
     18          6           0        0.494496    3.269787   -0.729854
     19          7           0       -0.303458    3.667220   -1.477098
     20          6           0        2.260076    3.735295    0.899943
     21          7           0        2.900080    4.521577    1.470117
     22          1           0       -0.383440   -4.689644    1.590410
     23          1           0       -2.194335   -4.259421    1.686562
     24          1           0       -4.479079    2.599984    0.352924
     25          1           0       -3.497065    1.818971    1.603499
     26          1           0       -2.777146    2.239639    0.037452
     27          1           0       -5.184321    0.951796   -2.306607
     28          1           0       -4.653710   -0.734844   -2.438581
     29          1           0       -3.466199    0.578078   -2.517378
     30          1           0       -6.062652   -1.415904    0.296557
     31          1           0       -5.659672   -0.492778    1.753354
     32          1           0       -6.603917    0.263869    0.458795
     33          1           0        5.405271   -2.539307   -0.724950
     34          1           0        4.469647   -3.277298    0.587931
     35          1           0        4.135904   -3.718285   -1.094431
     36          1           0        3.958823   -0.533606   -2.713160
     37          1           0        2.264215   -0.090754   -2.452456
     38          1           0        2.674953   -1.721856   -2.995177
     39          1           0        4.322383   -0.496591    1.379036
     40          1           0        4.340435    0.612854    0.023107
     41          1           0        3.061079    1.527836    1.955831
     42          1           0        2.011309    0.104630    1.958540
     43          1           0        0.981069    0.771438   -0.202514
 ---------------------------------------------------------------------

 The electronic state is 1-A.
 Alpha  occ. eigenvalues --  -66.15894 -66.14269 -14.36829 -14.36664 -10.29165
 Alpha  occ. eigenvalues --  -10.26702 -10.26102 -10.26019 -10.26012 -10.23074
 Alpha  occ. eigenvalues --  -10.22301 -10.21876 -10.20751 -10.20487 -10.19216
 Alpha  occ. eigenvalues --  -10.18503 -10.18466 -10.18410 -10.17135 -10.16944
 Alpha  occ. eigenvalues --  -10.16827  -5.30173  -5.28549  -3.66176  -3.66010
 Alpha  occ. eigenvalues --   -3.65989  -3.64562  -3.64373  -3.64366  -0.94185
 Alpha  occ. eigenvalues --   -0.92811  -0.87063  -0.85070  -0.79846  -0.75915
 Alpha  occ. eigenvalues --   -0.74396  -0.72634  -0.71741  -0.69980  -0.69680
 Alpha  occ. eigenvalues --   -0.68487  -0.68322  -0.65036  -0.64018  -0.60355
 Alpha  occ. eigenvalues --   -0.57185  -0.53560  -0.51583  -0.50645  -0.48000
 Alpha  occ. eigenvalues --   -0.47752  -0.44456  -0.43208  -0.42827  -0.42736
 Alpha  occ. eigenvalues --   -0.42200  -0.41996  -0.41702  -0.41368  -0.41215
 Alpha  occ. eigenvalues --   -0.41173  -0.40269  -0.39806  -0.39652  -0.39304
 Alpha  occ. eigenvalues --   -0.39114  -0.38634  -0.38324  -0.38181  -0.37104
 Alpha  occ. eigenvalues --   -0.36655  -0.36546  -0.35827  -0.35558  -0.33411
 Alpha  occ. eigenvalues --   -0.32459  -0.31976  -0.31569  -0.29650  -0.29517
 Alpha  occ. eigenvalues --   -0.28733  -0.27651  -0.24983
 Alpha virt. eigenvalues --   -0.09539  -0.07605  -0.02455  -0.02013  -0.01773
 Alpha virt. eigenvalues --   -0.00930  -0.00202   0.00213   0.00380   0.00832
 Alpha virt. eigenvalues --    0.01167   0.01580   0.02092   0.02552   0.02793

 Mulliken charges:
               1
     1  C   -0.380590
     2  C    0.173701
     3  C    0.351310
     4  C   -0.995653
     5  Si   1.222925
     6  C   -0.678210
     7  C   -0.651429
     8  C   -0.663169
     9  C    0.229382
    10  C   -1.039522
    11  Si   1.186191
    12  C   -0.672202
    13  C   -0.637805
    14  C   -0.651409
    15  C   -0.051193
    16  C    0.312031
    17  C    0.822649
    18  C   -0.285256
    19  N   -0.430868
    20  C   -0.355225
    21  N   -0.484017
    22  H    0.154088
    23  H    0.157083
    24  H    0.164676
    25  H    0.162936
    26  H    0.177977
    27  H    0.162907
    28  H    0.164804
    29  H    0.171850
    30  H    0.165529
    31  H    0.165425
    32  H    0.162336
    33  H    0.166377
    34  H    0.168840
    35  H    0.170540
    36  H    0.165866
    37  H    0.168786
    38  H    0.173194
    39  H    0.168361
    40  H    0.169047
    41  H    0.162066
    42  H    0.185226
    43  H    0.170448
 Sum of Mulliken charges =  -0.00000

 Dipole moment (field-independent basis, Debye):
    X=              0.7163    Y=             -5.6544    Z=              0.6572  Tot=              5.7374
 Quadrupole moment (field-independent basis, Debye-Ang):
   XX=           -130.4078   YY=           -165.7537   ZZ=           -146.5505
   XY=            -11.3942   XZ=             -6.0261   YZ=             -3.2828

 Normal termination of Gaussian 16 at Thu Aug  7 20:07:32 2025.
